LAMMPS

18360 atoms 
18336 bonds 
29904 angles 
5712 dihedrals 
0 impropers 

6 atom types 
7 bond types 
9 angle types 
5 dihedral types 

0.00 55.4228286743 xlo xhi 
0.00 55.4228286743 ylo yhi 
0.00 55.4228286743 zlo zhi 

Masses

  1 0.0010078
  2 0.0010078 
  3 0.012     
  4 0.012    
  5 0.014003 
  6 0.015995 

Atoms

  1 1 3 0.0 11.8998565674 48.4455718994 19.0971984863
  2 1 1 0.0 12.8466796875 48.1473007202 18.6461906433
  3 1 1 0.0 11.0093536377 48.7145767212 18.5247917175
  4 1 3 0.0 12.4033203125 49.2582168579 20.2825050354
  5 1 1 0.0 13.0947723389 48.8437194824 21.0175533295
  6 1 1 0.0 11.540184021 49.6138534546 20.8459072113
  7 1 3 0.0 13.0085144043 50.6062469482 19.9141769409
  8 1 1 0.0 12.9834518433 51.1562423706 18.9713554382
  9 1 1 0.0 12.6588821411 51.4160842896 20.5548400879
  10 1 3 0.0 14.5285415649 50.6892776489 19.9419136047
  11 1 1 0.0 15.0167388916 50.4882659912 20.8964080811
  12 1 1 0.0 14.8834533691 51.7200317383 19.8965358734
  13 1 4 0.0 15.3308334351 49.8337631226 18.972442627
  14 1 6 0.0 16.4335403442 49.4514083862 19.3579502106
  15 1 5 0.0 15.1502304077 50.1907424927 17.6991577148
  16 1 2 0.0 14.5923614502 51.0306015015 17.7598896027
  17 1 3 0.0 14.7973403931 49.2371444702 16.6670532227
  18 1 1 0.0 14.3985137939 48.3022384644 17.0608062744
  19 1 1 0.0 13.9160690308 49.6974105835 16.2193222046
  20 1 3 0.0 16.0551300049 48.9497909546 15.8583278656
  21 1 1 0.0 16.6872329712 48.3026199341 16.4715576172
  22 1 1 0.0 16.5587997437 49.8411712646 15.4838504791
  23 1 3 0.0 15.6963653564 47.8913269043 14.8251066208
  24 1 1 0.0 15.1629180908 46.9530563354 15.0032224655
  25 1 1 0.0 15.1267852783 48.510925293 14.1302852631
  26 1 3 0.0 16.951965332 47.452293396 14.0843477249
  27 1 1 0.0 17.9457626343 47.400604248 14.5299530029
  28 1 1 0.0 16.9524383545 48.0403289795 13.164601326
  29 1 3 0.0 16.9335403442 46.1109085083 13.3664302826
  30 1 1 0.0 16.1728744507 46.2796173096 12.6057424545
  31 1 1 0.0 17.8323440552 46.0429534912 12.7511672974
  32 1 3 0.0 16.8518295288 44.8333282471 14.1906414032
  33 1 1 0.0 16.5010299683 44.9449081421 15.2222194672
  34 1 1 0.0 17.927520752 44.6814651489 14.2894001007
  35 1 5 0.0 16.2094726562 43.8367004395 13.3566274643
  36 1 2 0.0 16.6966247559 43.0232086182 13.0057439804
  37 1 4 0.0 15.0152053833 43.2605514526 13.5106554031
  38 1 6 0.0 13.9498977661 43.8387069702 13.7158346176
  39 1 3 0.0 15.0909500122 41.7769012451 13.836315155
  40 1 1 0.0 15.1424255371 41.3684997559 12.8254270554
  41 1 1 0.0 15.9707717896 41.6306381226 14.46443367
  42 1 3 0.0 13.8569641113 41.2499771118 14.5594367981
  43 1 1 0.0 12.9981155396 41.169380188 13.8899326324
  44 1 1 0.0 13.5715103149 41.8011627197 15.4547166824
  45 1 3 0.0 13.9690170288 39.7647705078 14.8702640533
  46 1 1 0.0 14.8270645142 39.5964126587 15.5218791962
  47 1 1 0.0 13.0709915161 39.3284835815 15.3118934631
  48 1 3 0.0 14.1403274536 38.9002380371 13.6279392242
  49 1 1 0.0 14.6404495239 39.4438476562 12.8253307343
  50 1 1 0.0 13.135093689 38.6879501343 13.2666196823
  51 1 4 0.0 14.9085769653 37.5908279419 13.7359085083
  52 1 6 0.0 16.1219100952 37.6635055542 13.5586605072
  53 1 5 0.0 14.3190155029 36.3943557739 13.682841301
  54 1 2 0.0 13.6089630127 36.5280990601 14.3906297684
  55 1 3 0.0 14.3335494995 35.4872512817 12.5518569946
  56 1 1 0.0 13.4050598145 35.559211731 11.9856729507
  57 1 1 0.0 15.1791610718 35.8028793335 11.9361772537
  58 1 3 0.0 14.3785095215 34.0208816528 12.96118927
  59 1 1 0.0 13.6622085571 33.5354690552 12.297914505
  60 1 1 0.0 14.1750411987 33.8716201782 14.0215024948
  61 1 3 0.0 15.6244506836 33.1683273315 12.7606506348
  62 1 1 0.0 15.8018264771 32.6130599976 11.8398456573
  63 1 1 0.0 16.4589309692 33.8376998901 12.5360336304
  64 1 3 0.0 15.884185791 31.9660568237 13.6590614319
  65 1 1 0.0 16.1065216064 31.0748672485 13.0717773438
  66 1 1 0.0 14.9851150513 31.4074935913 13.9251804352
  67 1 3 0.0 16.7714309692 32.2403335571 14.8652029037
  68 1 1 0.0 17.6737442017 32.6639175415 14.4263601303
  69 1 1 0.0 16.2611694336 33.104133606 15.2900295258
  70 1 3 0.0 16.9505386353 31.0700149536 15.8230113983
  71 1 1 0.0 17.9481430054 30.6560897827 15.6641483307
  72 1 1 0.0 16.2342453003 30.2611923218 15.6705369949
  73 1 5 0.0 16.9174804688 31.5941696167 17.1744174957
  74 1 2 0.0 17.5652313232 32.2852706909 17.5300960541
  75 1 4 0.0 15.967376709 31.615196228 18.1109695435
  76 1 6 0.0 15.3993835449 30.5518722534 18.3490619659
  77 1 3 0.0 15.4204711914 32.9683303833 18.5467205048
  78 1 1 0.0 14.4694213867 32.786491394 19.0457782745
  79 1 1 0.0 16.1386642456 33.4139633179 19.2345657349
  80 1 3 0.0 14.9127578735 34.0223617554 17.5712032318
  81 1 1 0.0 13.8916015625 34.4061660767 17.576833725
  82 1 1 0.0 14.7163925171 33.4305343628 16.6766777039
  83 1 3 0.0 15.6594848633 35.2951583862 17.1966056824
  84 1 1 0.0 16.623588562 35.346031189 17.7014598846
  85 1 1 0.0 15.799369812 35.1889572144 16.1195526123
  86 1 3 0.0 15.1392440796 36.6630935669 17.6165275574
  87 1 1 0.0 14.0914306641 36.7439804077 17.3266849518
  88 1 1 0.0 15.5353317261 37.4287796021 16.9477386475
  89 1 4 0.0 15.414894104 36.8999710083 19.0950946808
  90 1 6 0.0 14.3693847656 37.060295105 19.718870163
  91 1 5 0.0 16.5946960449 36.7972640991 19.7132396698
  92 1 2 0.0 16.8134155273 35.8352584839 19.9320812225
  93 1 3 0.0 17.5341033936 37.8900527954 19.8733921051
  94 1 1 0.0 17.3998336792 38.5989761353 19.0546836853
  95 1 1 0.0 17.4258041382 38.4753265381 20.7893486023
  96 1 3 0.0 19.0150299072 37.5502243042 19.7848243713
  97 1 1 0.0 18.9419403076 36.8081741333 18.9889717102
  98 1 1 0.0 19.2351379395 36.9980697632 20.6991195679
  99 1 3 0.0 20.0149841309 38.6978302002 19.8499698639
  100 1 1 0.0 20.7744216919 38.6682815552 19.0685844421
  101 1 1 0.0 19.4032516479 39.5834503174 19.6770706177
  102 1 3 0.0 20.7032775879 38.8364334106 21.2019824982
  103 1 1 0.0 21.4660415649 39.6052093506 21.3113765717
  104 1 1 0.0 21.3276672363 37.9635391235 21.396818161
  105 1 3 0.0 19.8312454224 39.1930007935 22.3977241516
  106 1 1 0.0 19.2737197876 40.1223144531 22.2847824097
  107 1 1 0.0 19.0660858154 38.423248291 22.5144271851
  108 1 3 0.0 20.7327880859 39.2706680298 23.6217193604
  109 1 1 0.0 21.4611282349 40.048576355 23.3686733246
  110 1 1 0.0 21.2578430176 38.3411178589 23.8469676971
  111 1 5 0.0 19.9109649658 39.5817871094 24.7745246887
  112 1 2 0.0 19.0363311768 40.0888366699 24.7993450165
  113 1 4 0.0 19.9229660034 39.0255813599 25.9875831604
  114 1 6 0.0 21.0342254639 38.8331832886 26.475528717
  115 1 3 0.0 18.6870574951 38.2686157227 26.4542922974
  116 1 1 0.0 17.7606811523 38.8458175659 26.453327179
  117 1 1 0.0 18.3556594849 37.7629470825 25.5466556549
  118 1 3 0.0 18.7021942139 37.2325515747 27.570274353
  119 1 1 0.0 19.4900054932 37.4955215454 28.2766036987
  120 1 1 0.0 19.071105957 36.3186569214 27.1061229706
  121 1 3 0.0 17.2758483887 36.9901351929 28.044834137
  122 1 1 0.0 16.6353912354 36.6159286499 27.2445316315
  123 1 1 0.0 17.403465271 36.35962677 28.9263515472
  124 1 3 0.0 16.6273040771 38.1278762817 28.8217926025
  125 1 1 0.0 16.491317749 39.0166778564 28.2012195587
  126 1 1 0.0 17.2163543701 38.2088851929 29.7357196808
  127 1 4 0.0 15.2263412476 37.8794174194 29.3601207733
  128 1 6 0.0 14.3541717529 37.4795150757 28.5914039612
  129 1 5 0.0 15.1901473999 37.6523208618 30.675151825
  130 1 2 0.0 15.6806259155 38.3981246948 31.1512145996
  131 1 3 0.0 14.8860168457 36.3403701782 31.2114906311
  132 1 1 0.0 13.9316711426 36.363243103 31.7388877869
  133 1 1 0.0 14.5482635498 35.6946640015 30.4004402161
  134 1 3 0.0 15.8250045776 35.8059616089 32.2840919495
  135 1 1 0.0 15.4030685425 36.1507797241 33.2281951904
  136 1 1 0.0 16.8741226196 36.0598068237 32.1193656921
  137 1 3 0.0 15.7677688599 34.3524093628 32.7337112427
  138 1 1 0.0 14.7437667847 33.9923171997 32.644317627
  139 1 1 0.0 16.1759796143 33.6894302368 31.9709854126
  140 1 3 0.0 16.4540405273 34.1743545532 34.0827140808
  141 1 1 0.0 15.8847045898 34.4844894409 34.9596557617
  142 1 1 0.0 17.2853164673 34.8820877075 34.1133422852
  143 1 3 0.0 17.1393585205 32.8530502319 34.4014434814
  144 1 1 0.0 16.3950042725 32.1574783325 34.7895698547
  145 1 1 0.0 17.2234039307 32.2115097046 33.5242118835
  146 1 3 0.0 18.5069580078 32.9043960571 35.0701332092
  147 1 1 0.0 19.1595001221 33.6734695435 34.6554679871
  148 1 1 0.0 19.0725326538 32.1358261108 34.5432624817
  149 1 5 0.0 18.3842086792 32.7272109985 36.5040397644
  150 1 2 0.0 17.8856277466 31.9085769653 36.8198814392
  151 1 4 0.0 18.9272994995 33.2741012573 37.5935516357
  152 1 6 0.0 18.3225250244 34.195854187 38.1368942261
  153 1 3 0.0 20.1122817993 32.5431289673 38.21043396
  154 1 1 0.0 20.1362457275 32.7497329712 39.2806777954
  155 1 1 0.0 20.1528167725 31.4550247192 38.1359558105
  156 1 3 0.0 21.4415283203 32.9280776978 37.575958252
  157 1 1 0.0 21.6115341187 33.8111801147 38.1982345581
  158 1 1 0.0 21.2985229492 33.3309402466 36.5721244812
  159 1 3 0.0 22.5618209839 31.89818573 37.6345100403
  160 1 1 0.0 23.3918151855 32.4033126831 38.1302070618
  161 1 1 0.0 22.081993103 30.9727554321 37.9614982605
  162 1 3 0.0 23.2314147949 31.4323043823 36.3492774963
  163 1 1 0.0 23.7997512817 32.2426376343 35.8913269043
  164 1 1 0.0 22.251739502 31.2182540894 35.9175415039
  165 1 4 0.0 24.1676101685 30.2316513062 36.3122634888
  166 1 6 0.0 24.0365524292 29.2924880981 35.5302391052
  167 1 5 0.0 25.2613067627 30.277015686 37.0744438171
  168 1 2 0.0 24.8256759644 30.1890640259 37.9833335876
  169 1 3 0.0 26.6269226074 30.5841293335 36.6994247437
  170 1 1 0.0 26.8823547363 29.5559463501 36.4475212097
  171 1 1 0.0 26.6825714111 31.4018325806 35.9776725769
  172 1 3 0.0 27.4997787476 31.0340652466 37.8626213074
  173 1 1 0.0 28.4756546021 30.7115402222 37.4979934692
  174 1 1 0.0 27.2806091309 30.5131912231 38.7945861816
  175 1 3 0.0 27.5256958008 32.5018997192 38.2674293518
  176 1 1 0.0 27.8655014038 33.1426010132 37.452796936
  177 1 1 0.0 26.4673843384 32.7635269165 38.2274856567
  178 1 3 0.0 28.2350692749 32.8413314819 39.5716133118
  179 1 1 0.0 29.2266616821 32.4122085571 39.7246170044
  180 1 1 0.0 27.5260696411 32.3717727661 40.2540588379
  181 1 3 0.0 28.2665481567 34.2917404175 40.0334243774
  182 1 1 0.0 28.8115997314 34.9842758179 39.3873443604
  183 1 1 0.0 27.3173751831 34.7793197632 40.260219574
  184 1 3 0.0 28.9409561157 34.2627944946 41.3984985352
  185 1 1 0.0 29.0093154907 33.4826431274 42.1602210999
  186 1 1 0.0 28.3980789185 34.963722229 42.0331230164
  187 1 5 0.0 30.2902832031 34.7008285522 41.1014595032
  188 1 2 0.0 30.8325576782 34.3612289429 40.3200569153
  189 1 4 0.0 31.3467330933 34.7009048462 41.9164733887
  190 1 6 0.0 31.6793289185 35.6249008179 42.6548614502
  191 1 3 0.0 32.2435302734 33.4716110229 41.8699035645
  192 1 1 0.0 31.9242095947 32.8352432251 41.0431251526
  193 1 1 0.0 33.2565994263 33.6297073364 41.4952659607
  194 1 3 0.0 32.3463668823 32.6482467651 43.1479568481
  195 1 1 0.0 31.4735946655 31.9965438843 43.1726150513
  196 1 1 0.0 32.1099624634 33.1914596558 44.0631523132
  197 1 3 0.0 33.6839904785 31.980796814 43.4367141724
  198 1 1 0.0 33.8502426147 31.4421615601 42.5039100647
  199 1 1 0.0 34.4217605591 32.7682266235 43.2887649536
  200 1 3 0.0 34.0013885498 30.9238204956 44.4868164062
  201 1 1 0.0 34.9848861694 30.5406723022 44.2100334167
  202 1 1 0.0 33.2736587524 30.1127548218 44.5069122314
  203 1 4 0.0 34.2802505493 31.5563278198 45.8433990479
  204 1 6 0.0 35.4094924927 31.787071228 46.26902771
  205 1 5 0.0 33.2975845337 31.9354629517 46.6624755859
  206 1 2 0.0 32.6217956543 31.2213363647 46.4216842651
  207 1 3 0.0 32.9084014893 33.2875137329 47.0118408203
  208 1 1 0.0 33.7876205444 33.5431289673 47.6055870056
  209 1 1 0.0 32.6707458496 33.9341812134 46.1649894714
  210 1 3 0.0 31.6613616943 33.4390182495 47.872756958
  211 1 1 0.0 31.3369674683 32.523109436 48.36460495
  212 1 1 0.0 30.8023910522 33.8588485718 47.3464660645
  213 1 3 0.0 31.8119812012 34.4678268433 48.9842681885
  214 1 1 0.0 32.6533889771 34.0933761597 49.5683059692
  215 1 1 0.0 31.8774795532 35.4065170288 48.4305953979
  216 1 3 0.0 30.6194534302 34.772605896 49.8809432983
  217 1 1 0.0 29.7985839844 34.9411697388 49.1836853027
  218 1 1 0.0 30.6070632935 35.8067855835 50.2242889404
  219 1 3 0.0 30.2295532227 33.8167037964 50.9999465942
  220 1 1 0.0 31.1900634766 33.431098938 51.3503684998
  221 1 1 0.0 29.8809661865 34.4946060181 51.7827644348
  222 1 3 0.0 29.400894165 32.6178512573 50.55701828
  223 1 1 0.0 28.9245147705 32.7320327759 49.5823707581
  224 1 1 0.0 28.5841903687 32.4561691284 51.2679138184
  225 1 5 0.0 30.1105117798 31.3862380981 50.2753448486
  226 1 2 0.0 31.1210250854 31.4023208618 50.2095108032
  227 1 4 0.0 29.559425354 30.1926193237 50.5067024231
  228 1 6 0.0 28.7675476074 29.7279434204 49.6887893677
  229 1 3 0.0 30.4256439209 29.2974319458 51.3810005188
  230 1 1 0.0 30.4203262329 28.5009689331 50.6346130371
  231 1 1 0.0 31.3808441162 29.7921829224 51.5627441406
  232 1 3 0.0 29.9866256714 28.6105880737 52.6672935486
  233 1 1 0.0 29.2158508301 28.0762863159 52.1097183228
  234 1 1 0.0 29.3158569336 29.2039718628 53.2888069153
  235 1 3 0.0 30.8286590576 27.5786209106 53.4060211182
  236 1 1 0.0 30.3450393677 26.6389694214 53.6819992065
  237 1 1 0.0 31.496383667 27.306602478 52.5867500305
  238 1 3 0.0 31.4743804932 27.9445724487 54.7359085083
  239 1 1 0.0 30.6946182251 28.2163314819 55.4470596313
  240 1 1 0.0 32.1491470337 28.7428665161 54.4211273193
  241 1 4 0.0 32.1674346924 26.7465591431 55.3680038452
  242 1 6 0.0 31.810218811 26.2855758667 56.4513015747
  243 1 5 0.0 33.3292388916 26.5506668091 54.7417068481
  244 1 2 0.0 33.1683273315 26.0264205933 53.891658783
  245 1 3 0.0 34.4785690308 26.2184371948 55.5596618652
  246 1 1 0.0 34.6031112671 26.7110366821 56.5252990723
  247 1 1 0.0 34.2959594727 25.2476425171 56.0308303833
  248 1 3 0.0 35.6901855469 26.144859314 54.6424674988
  249 1 1 0.0 35.2991104126 25.5841903687 53.7915344238
  250 1 1 0.0 36.5148849487 25.5880050659 55.0912017822
  251 1 3 0.0 36.5588378906 27.3904037476 54.5289916992
  252 1 1 0.0 35.9627456665 28.3052444458 54.4626693726
  253 1 1 0.0 37.2304534912 27.4138870239 55.3940544128
  254 1 3 0.0 37.502204895 27.2911148071 53.3386268616
  255 1 1 0.0 37.2121734619 26.5076828003 52.6380462646
  256 1 1 0.0 38.3984451294 26.9382858276 53.8517570496
  257 1 3 0.0 37.5663299561 28.4503555298 52.3522186279
  258 1 1 0.0 36.7163009644 28.7221908569 51.728969574
  259 1 1 0.0 37.8195114136 29.3074874878 52.977935791
  260 1 3 0.0 38.7873458862 28.2432632446 51.4672470093
  261 1 1 0.0 38.9110641479 27.1891098022 51.2192344666
  262 1 1 0.0 39.5902862549 28.4784469604 52.1686134338
  263 1 5 0.0 38.9707870483 29.1015548706 50.3133621216
  264 1 2 0.0 38.5481948853 30.0153427124 50.243270874
  265 1 4 0.0 39.2830200195 28.7796554565 49.0556030273
  266 1 6 0.0 40.3696975708 28.277961731 48.7785186768
  267 1 3 0.0 38.3482284546 29.2120895386 47.9340705872
  268 1 1 0.0 37.9386749268 30.150642395 48.3055725098
  269 1 1 0.0 38.7029800415 29.6652603149 47.0081481934
  270 1 3 0.0 37.2691726685 28.1922073364 47.5964584351
  271 1 1 0.0 37.9565505981 27.3628311157 47.4258079529
  272 1 1 0.0 36.612953186 27.866065979 48.4036178589
  273 1 3 0.0 36.3564987183 28.5321273804 46.4264831543
  274 1 1 0.0 35.4352035522 28.9815139771 46.7996177673
  275 1 1 0.0 36.920249939 29.2649459839 45.8437538147
  276 1 3 0.0 36.2354354858 27.3248214722 45.5056915283
  277 1 1 0.0 35.941368103 26.4654312134 46.1094055176
  278 1 1 0.0 37.1465072632 26.9692001343 45.0235595703
  279 1 4 0.0 35.3523025513 27.4998703003 44.2786636353
  280 1 6 0.0 35.8398513794 27.9872207642 43.2618751526
  281 1 5 0.0 34.0325775146 27.2984848022 44.2992095947
  282 1 2 0.0 33.7043075562 27.8680343628 45.0668029785
  283 1 3 0.0 33.4619369507 25.989692688 44.0468521118
  284 1 1 0.0 33.0922470093 26.0178146362 43.0218048096
  285 1 1 0.0 34.2110977173 25.1920547485 44.0065345764
  286 1 3 0.0 32.4598464966 25.2636642456 44.9349136353
  287 1 1 0.0 31.5567245483 25.8577651978 45.0730667114
  288 1 1 0.0 32.7528686523 25.3714828491 45.9793815613
  289 1 3 0.0 32.2427597046 23.7666244507 44.7508163452
  290 1 1 0.0 32.8410949707 23.042930603 45.305305481
  291 1 1 0.0 31.4179000854 23.5112838745 45.4154815674
  292 1 3 0.0 32.2154159546 23.2316360474 43.3248825073
  293 1 1 0.0 32.5985946655 22.2107772827 43.3757591248
  294 1 1 0.0 32.9895019531 23.6952285767 42.7094116211
  295 1 3 0.0 30.9673614502 23.1835250854 42.4553375244
  296 1 1 0.0 31.3166427612 22.4077682495 41.7722740173
  297 1 1 0.0 30.1631469727 22.8326339722 43.1046257019
  298 1 3 0.0 30.5949707031 24.5036392212 41.7930297852
  299 1 1 0.0 31.0169830322 25.473197937 42.0577583313
  300 1 1 0.0 29.5410461426 24.6221084595 42.0423278809
  301 1 5 0.0 30.5625 24.3368911743 40.3542404175
  302 1 2 0.0 30.6639328003 23.3839950562 40.0335769653
  303 1 4 0.0 29.7486724854 25.0548629761 39.5768508911
  304 1 6 0.0 30.0634078979 26.2143325806 39.3179092407
  305 1 3 0.0 28.4324874878 24.4798812866 39.0724906921
  306 1 1 0.0 27.9286727905 25.4243545532 38.867855072
  307 1 1 0.0 28.588722229 23.9208297729 38.1500473022
  308 1 3 0.0 27.40675354 23.8509140015 40.0055541992
  309 1 1 0.0 27.331993103 24.5200119019 40.8631706238
  310 1 1 0.0 27.9965591431 22.9547653198 40.2066345215
  311 1 3 0.0 26.0051803589 23.5842514038 39.471988678
  312 1 1 0.0 25.5761260986 24.4477920532 38.9640312195
  313 1 1 0.0 26.0638961792 22.8972091675 38.6275062561
  314 1 3 0.0 24.958442688 23.1153488159 40.4746589661
  315 1 1 0.0 24.4019241333 23.9946517944 40.7993659973
  316 1 1 0.0 25.4801864624 22.7532272339 41.3631782532
  317 1 4 0.0 23.8199310303 22.1419143677 40.1995925903
  318 1 6 0.0 23.579460144 21.5029830933 39.1776657104
  319 1 5 0.0 23.0452804565 21.8688583374 41.252040863
  320 1 2 0.0 23.4421005249 21.3601455688 42.029838562
  321 1 3 0.0 21.8023681641 22.4914016724 41.6588172913
  322 1 1 0.0 21.0893630981 22.7314224243 40.8680801392
  323 1 1 0.0 21.4918441772 21.7396316528 42.3839492798
  324 1 3 0.0 22.017829895 23.6372756958 42.6373138428
  325 1 1 0.0 21.9540634155 24.4845504761 41.954044342
  326 1 1 0.0 22.7976531982 23.5062637329 43.3892097473
  327 1 3 0.0 20.938911438 23.8222732544 43.6953887939
  328 1 1 0.0 20.823387146 22.8292922974 44.1372489929
  329 1 1 0.0 21.2269363403 24.6664657593 44.3228988647
  330 1 3 0.0 19.4955825806 24.0576553345 43.2738723755
  331 1 1 0.0 19.2524261475 23.1687545776 42.6935119629
  332 1 1 0.0 19.5746307373 24.8937759399 42.5794944763
  333 1 3 0.0 18.4870910645 24.4106674194 44.3594207764
  334 1 1 0.0 18.0086135864 23.4957046509 44.7124786377
  335 1 1 0.0 19.0135726929 24.5911636353 45.2972373962
  336 1 3 0.0 17.6327285767 25.6305007935 44.0354614258
  337 1 1 0.0 16.9424591064 25.2883682251 43.2627563477
  338 1 1 0.0 18.0880355835 26.5091323853 43.5758666992
  339 1 5 0.0 16.7084960938 26.0874862671 45.0536155701
  340 1 2 0.0 16.8382492065 25.5609054565 45.9061393738
  341 1 4 0.0 16.2940216064 27.2875289917 45.4684753418
  342 1 6 0.0 15.4544067383 27.7894668579 44.7268333435
  343 1 3 0.0 16.7411193848 28.1109237671 46.6695709229
  344 1 1 0.0 17.5730209351 27.518913269 47.0511703491
  345 1 1 0.0 17.3044052124 28.9894485474 46.359046936
  346 1 3 0.0 15.8598098755 28.7452316284 47.7384567261
  347 1 1 0.0 16.3279800415 29.0040969849 48.6879386902
  348 1 1 0.0 15.4640350342 27.7622909546 48.0096969604
  349 1 3 0.0 14.8473815918 29.827003479 47.3843154907
  350 1 1 0.0 14.608291626 30.5855636597 48.1300201416
  351 1 1 0.0 15.2652435303 30.409614563 46.5615768433
  352 1 3 0.0 13.5046768188 29.2406082153 46.9672851562
  353 1 1 0.0 12.7948532104 29.0365219116 47.7691650391
  354 1 1 0.0 13.6349868774 28.2237625122 46.5967979431
  355 1 4 0.0 12.5510940552 29.9559555054 46.0209617615
  356 1 6 0.0 11.9678573608 30.9307937622 46.4890327454
  357 1 5 0.0 12.6863479614 29.8621749878 44.6963119507
  358 1 2 0.0 13.2895889282 29.0531387329 44.6548233032
  359 1 3 0.0 12.9905166626 30.8602218628 43.6902923584
  360 1 1 0.0 12.0199813843 31.3391494751 43.8409996033
  361 1 1 0.0 13.8956680298 31.4745407104 43.7593841553
  362 1 3 0.0 13.0905990601 30.1818618774 42.3307952881
  363 1 1 0.0 13.0571060181 29.0918197632 42.3304328918
  364 1 1 0.0 14.1757965088 30.2570724487 42.2562713623
  365 1 3 0.0 12.3523712158 30.6677474976 41.0898208618
  366 1 1 0.0 12.9929199219 31.2936325073 40.4671058655
  367 1 1 0.0 12.2063522339 29.8185195923 40.4219436646
  368 1 3 0.0 10.9447479248 31.1424789429 41.422958374
  369 1 1 0.0 11.1044540405 32.2240524292 41.3991851807
  370 1 1 0.0 10.788520813 30.8330154419 42.4549942017
  371 1 3 0.0 9.86135864258 31.1141891479 40.353012085
  372 1 1 0.0 10.1111831665 31.6385421753 39.42918396
  373 1 1 0.0 9.71491241455 30.0380630493 40.2564582825
  374 1 3 0.0 8.46210479736 31.498374939 40.812587738
  375 1 1 0.0 8.64323425293 32.5373153687 41.1007499695
  376 1 1 0.0 8.23752212524 30.9436569214 41.7257461548
  377 1 5 0.0 7.53393554688 31.326789856 39.7117652893
  378 1 2 0.0 8.02757263184 30.7889175415 39.0123138428
  379 1 4 0.0 6.20385742188 31.2668685913 39.6129302979
  380 1 6 0.0 5.47201538086 32.2508163452 39.5266075134
  381 1 3 0.0 5.71335983276 29.8261032104 39.5966567993
  382 1 1 0.0 4.63023757935 29.7939682007 39.4714050293
  383 1 1 0.0 6.36126708984 29.266456604 38.9196853638
  384 1 3 0.0 5.90995025635 28.9418869019 40.8203125
  385 1 1 0.0 5.37871551514 29.1378707886 41.7561569214
  386 1 1 0.0 6.97845458984 29.0439376831 41.015045166
  387 1 3 0.0 5.42407608032 27.5224838257 40.5635910034
  388 1 1 0.0 5.7759437561 27.2502365112 41.5635681152
  389 1 1 0.0 4.34732818604 27.4429244995 40.3945388794
  390 1 3 0.0 6.09727096558 26.7504653931 39.4358177185
  391 1 1 0.0 7.17044067383 26.9491958618 39.4309501648
  392 1 1 0.0 5.73540496826 26.9646224976 38.4294395447
  393 1 4 0.0 5.90609359741 25.2409133911 39.4833831787
  394 1 6 0.0 5.72791290283 24.5714035034 38.468421936
  395 1 5 0.0 6.39937210083 24.5489120483 40.5120429993
  396 1 2 0.0 7.39789581299 24.7009811401 40.5520057678
  397 1 3 0.0 5.79463577271 24.1485671997 41.7675971985
  398 1 1 0.0 5.33945846558 24.9071884155 42.4056587219
  399 1 1 0.0 5.11132049561 23.3333511353 41.5063018799
  400 1 3 0.0 6.9151802063 23.5413284302 42.5990905762
  401 1 1 0.0 7.58921813965 24.3820877075 42.7577133179
  402 1 1 0.0 7.35172271729 22.8401870728 41.8857536316
  403 1 3 0.0 6.60578155518 23.0023269653 43.989654541
  404 1 1 0.0 5.53343200684 22.8131637573 44.0543060303
  405 1 1 0.0 7.05428314209 22.0235061646 44.1658325195
  406 1 3 0.0 7.11985778809 23.8471603394 45.1477508545
  407 1 1 0.0 6.3950881958 23.6025924683 45.9253387451
  408 1 1 0.0 7.01992034912 24.914604187 44.9447593689
  409 1 3 0.0 8.5972442627 23.6240158081 45.4415969849
  410 1 1 0.0 8.59520721436 22.5991897583 45.8141937256
  411 1 1 0.0 9.13200378418 23.7386703491 44.4985656738
  412 1 3 0.0 9.31932830811 24.5089035034 46.448551178
  413 1 1 0.0 9.1916885376 24.0600662231 47.4339332581
  414 1 1 0.0 8.90877532959 25.4959182739 46.664276123
  415 1 5 0.0 10.7451629639 24.4440841675 46.1955718994
  416 1 2 0.0 11.0957870483 23.5431900024 46.4941635132
  417 1 4 0.0 11.7321395874 25.3317337036 46.3377990723
  418 1 6 0.0 11.6046218872 26.4976425171 45.9694252014
  419 1 3 0.0 12.7475280762 24.9025344849 47.3879585266
  420 1 1 0.0 13.0610733032 23.8580093384 47.3838386536
  421 1 1 0.0 13.6890029907 25.4489212036 47.3476066589
  422 1 3 0.0 12.1876068115 24.9840927124 48.8009109497
  423 1 1 0.0 12.0656280518 23.9598617554 49.1536369324
  424 1 1 0.0 11.0983123779 24.9572372437 48.7646141052
  425 1 3 0.0 12.9423522949 25.9986953735 49.6500320435
  426 1 1 0.0 14.0272903442 25.9764480591 49.5419387817
  427 1 1 0.0 12.6342010498 26.9485397339 49.2090682983
  428 1 3 0.0 12.5621109009 26.0372848511 51.1242752075
  429 1 1 0.0 12.1583023071 25.0575637817 51.378818512
  430 1 1 0.0 11.5970230103 26.5050582886 51.3175773621
  431 1 4 0.0 13.5047836304 26.6527023315 52.1494369507
  432 1 6 0.0 13.1971664429 27.6964645386 52.7216033936
  433 1 5 0.0 14.7744216919 26.2571334839 52.0345840454
  434 1 2 0.0 14.7432785034 25.2486190796 51.9903717041
  435 1 3 0.0 15.8312225342 26.9614334106 51.3357887268
  436 1 1 0.0 16.2620391846 26.2821731567 50.600440979
  437 1 1 0.0 15.3673782349 27.6904067993 50.665813446
  438 1 3 0.0 16.8827438354 27.3607254028 52.3632736206
  439 1 1 0.0 17.8639297485 26.9735336304 52.0866622925
  440 1 1 0.0 16.8777542114 26.8863449097 53.3435821533
  441 1 3 0.0 16.9660186768 28.8781356812 52.4603118896
  442 1 1 0.0 17.4625396729 29.2194442749 51.5509033203
  443 1 1 0.0 15.9986419678 29.3307876587 52.2351036072
  444 1 3 0.0 17.4846801758 29.5634994507 53.7172698975
  445 1 1 0.0 18.2057571411 28.8803634644 54.1697998047
  446 1 1 0.0 16.6790237427 29.6583175659 54.4441452026
  447 1 3 0.0 17.930305481 30.9893722534 53.4228477478
  448 1 1 0.0 18.9035263062 30.7013320923 53.0229797363
  449 1 1 0.0 17.1964492798 31.5986709595 52.8902740479
  450 1 3 0.0 18.4222946167 31.8520736694 54.5758743286
  451 1 1 0.0 17.9737091064 31.3648300171 55.4416313171
  452 1 1 0.0 17.7968826294 32.7180404663 54.3510093689
  453 1 5 0.0 19.8651199341 31.9416732788 54.695400238
  454 1 2 0.0 20.3893890381 31.9795303345 53.8303909302
  455 1 4 0.0 20.4292221069 32.680015564 55.6534729004
  456 1 6 0.0 20.5535507202 32.346824646 56.8303108215
  457 1 3 0.0 21.0529098511 34.0085525513 55.2507629395
  458 1 1 0.0 20.8493423462 34.3195114136 54.2250366211
  459 1 1 0.0 20.814666748 34.6059494019 56.1317863464
  460 1 3 0.0 22.5670852661 34.1614608765 55.2069549561
  461 1 1 0.0 23.003578186 33.2219314575 54.8685760498
  462 1 1 0.0 22.8992462158 33.9785690308 56.2293777466
  463 1 3 0.0 23.1226730347 35.439125061 54.5903358459
  464 1 1 0.0 22.2144927979 35.9876327515 54.3386802673
  465 1 1 0.0 23.6089859009 36.0754318237 55.3305473328
  466 1 3 0.0 24.0969238281 35.2420578003 53.4366912842
  467 1 1 0.0 23.6849746704 34.3896102905 52.895652771
  468 1 1 0.0 24.9541015625 34.8924179077 54.015335083
  469 1 4 0.0 24.551612854 36.2914657593 52.431312561
  470 1 6 0.0 25.4601211548 35.9608840942 51.6729354858
  471 1 5 0.0 24.1983108521 37.5779647827 52.4681854248
  472 1 2 0.0 23.1945953369 37.6867904663 52.5158119202
  473 1 3 0.0 24.9188613892 38.7763061523 52.8522453308
  474 1 1 0.0 25.0868453979 38.8935775757 53.9230194092
  475 1 1 0.0 25.9761734009 38.607749939 52.6267089844
  476 1 3 0.0 24.0757141113 39.8968582153 52.2595024109
  477 1 1 0.0 23.0799560547 39.958946228 52.7084388733
  478 1 1 0.0 24.1706161499 39.5416641235 51.2319717407
  479 1 3 0.0 24.5972290039 41.325553894 52.1970977783
  480 1 1 0.0 23.6906433105 41.762046814 51.7735481262
  481 1 1 0.0 24.6699905396 41.6287918091 53.2412338257
  482 1 3 0.0 25.8741836548 41.7484054565 51.4828567505
  483 1 1 0.0 25.5618591309 42.0556716919 50.4827957153
  484 1 1 0.0 26.5935287476 40.9289932251 51.5135917664
  485 1 3 0.0 26.4376296997 43.1501235962 51.6715316772
  486 1 1 0.0 27.1934738159 43.2621841431 50.8912887573
  487 1 1 0.0 25.6368637085 43.8891067505 51.6028785706
  488 1 3 0.0 27.0598220825 43.3076705933 53.0519180298
  489 1 1 0.0 27.7121810913 42.4597854614 53.2660217285
  490 1 1 0.0 26.2646484375 43.4569168091 53.7855110168
  491 1 5 0.0 27.8967285156 44.4905471802 53.0868682861
  492 1 2 0.0 27.8097763062 45.0749588013 52.2668800354
  493 1 4 0.0 29.1509246826 44.9033432007 53.2887458801
  494 1 6 0.0 29.6783447266 44.9402694702 54.3975486755
  495 1 3 0.0 30.0843582153 44.9977493286 52.0889472961
  496 1 1 0.0 31.1623001099 44.9752349854 52.2463760376
  497 1 1 0.0 30.0246963501 44.2029876709 51.345916748
  498 1 3 0.0 29.9560470581 46.3664169312 51.4355316162
  499 1 1 0.0 28.8973464966 46.6243286133 51.4780349731
  500 1 1 0.0 30.0968933105 46.3719406128 50.354839325
  501 1 3 0.0 30.6434860229 47.4866027832 52.2044792175
  502 1 1 0.0 30.1461715698 47.5227203369 53.1771087646
  503 1 1 0.0 31.7295303345 47.5756988525 52.2602653503
  504 1 3 0.0 30.5546112061 48.7229309082 51.3189697266
  505 1 1 0.0 29.6100921631 48.9875335693 50.8487243652
  506 1 1 0.0 31.11693573 48.6579971313 50.3870239258
  507 1 4 0.0 30.8957901001 50.0837783813 51.9076919556
  508 1 6 0.0 32.0690765381 50.4434356689 51.8514556885
  509 1 5 0.0 30.2361526489 50.4696044922 53.002456665
  510 1 2 0.0 29.8496932983 49.6048049927 53.3587875366
  511 1 3 0.0 29.2349472046 51.5167922974 52.9851226807
  512 1 1 0.0 29.9297103882 52.3535232544 52.8968048096
  513 1 1 0.0 28.5428619385 51.4583816528 52.1435165405
  514 1 3 0.0 28.2027282715 51.5206451416 54.105255127
  515 1 1 0.0 27.8076019287 50.5805053711 54.4921455383
  516 1 1 0.0 27.1834869385 51.8026809692 53.8362846375
  517 1 3 0.0 28.6104812622 52.5025100708 55.1934356689
  518 1 1 0.0 29.5311813354 52.0984039307 55.6144180298
  519 1 1 0.0 28.7911148071 53.3146820068 54.4872817993
  520 1 3 0.0 27.5007858276 52.4328765869 56.2337150574
  521 1 1 0.0 27.2536010742 51.3817749023 56.4099731445
  522 1 1 0.0 26.5852661133 52.7771911621 55.7485656738
  523 1 3 0.0 27.8915252686 53.1809921265 57.5010719299
  524 1 1 0.0 26.9653091431 53.1807022095 58.074546814
  525 1 1 0.0 28.3811798096 52.6099472046 58.2905883789
  526 1 3 0.0 28.0307846069 54.6890487671 57.3425636292
  527 1 1 0.0 27.134475708 55.1154632568 56.88804245
  528 1 1 0.0 28.9581985474 54.7931060791 56.7763595581
  529 1 5 0.0 28.3166427612 55.4278793335 58.5563735962
  530 1 2 0.0 28.6491165161 54.9109268188 59.3572769165
  531 1 4 0.0 27.767036438 56.5429458618 59.0425796509
  532 1 6 0.0 27.8470153809 57.4984283447 58.2747421265
  533 1 3 0.0 26.5496292114 56.3504714966 59.9365310669
  534 1 1 0.0 25.6030044556 56.4171524048 59.4008827209