4
exam12.out	Energy:     -73.6046483
C          0.00000        0.00000       -0.58885
C          0.00000        0.00000        0.58885
H          0.00000        0.00000       -1.66379
H          0.00000        0.00000        1.66379
