ITEM: TIMESTEP
0
ITEM: NUMBER OF ATOMS
24
ITEM: BOX BOUNDS pp pp pp
0.0000000000000000e+00 6.2000000000000002e+00
0.0000000000000000e+00 6.2000000000000002e+00
0.0000000000000000e+00 6.2000000000000002e+00
ITEM: ATOMS id type xs ys zs
1 2 0.25 0.25 0.241936
2 1 0.25 0.381692 0.335058
3 1 0.25 0.118308 0.335058
13 2 0.25 0.25 0.741936
14 1 0.25 0.381692 0.835058
15 1 0.25 0.118308 0.835058
7 2 0.25 0.75 0.241936
8 1 0.25 0.881692 0.335058
9 1 0.25 0.618308 0.335058
19 2 0.25 0.75 0.741936
20 1 0.25 0.881692 0.835058
21 1 0.25 0.618308 0.835058
4 2 0.75 0.25 0.241936
5 1 0.75 0.381692 0.335058
6 1 0.75 0.118308 0.335058
16 2 0.75 0.25 0.741936
17 1 0.75 0.381692 0.835058
18 1 0.75 0.118308 0.835058
10 2 0.75 0.75 0.241936
11 1 0.75 0.881692 0.335058
12 1 0.75 0.618308 0.335058
22 2 0.75 0.75 0.741936
23 1 0.75 0.881692 0.835058
24 1 0.75 0.618308 0.835058
ITEM: TIMESTEP
500
ITEM: NUMBER OF ATOMS
24
ITEM: BOX BOUNDS pp pp pp
2.1427867124774069e-01 5.9857213287522608e+00
2.1427867124774069e-01 5.9857213287522608e+00
2.1427867124774069e-01 5.9857213287522608e+00
ITEM: ATOMS id type xs ys zs
1 2 0.278215 0.12611 0.322087
2 1 0.419229 0.0963968 0.22581
3 1 0.326078 0.183441 0.478483
13 2 0.394618 0.263115 0.798295
14 1 0.33327 0.406617 0.873669
15 1 0.56664 0.275761 0.781396
7 2 0.172549 0.633511 0.237899
8 1 0.337181 0.65854 0.285938
9 1 0.136246 0.734083 0.101499
19 2 0.143421 0.854531 0.779421
20 1 0.138083 0.84979 0.606258
21 1 0.287323 -0.063525 0.830558
4 2 0.826394 0.340196 0.492484
5 1 0.838175 0.302551 0.661249
6 1 0.975131 0.299059 0.413603
16 2 0.852765 0.296579 0.961632
17 1 0.837169 0.449493 0.0417052
18 1 0.98021 0.205361 0.0356204
10 2 0.667956 0.748774 0.961347
11 1 0.651409 0.752752 0.133823
12 1 0.825815 0.805015 0.917145
22 2 0.609818 0.720116 0.441249
23 1 0.693115 0.568674 0.454077
24 1 0.516269 0.74692 0.584663
ITEM: TIMESTEP
1000
ITEM: NUMBER OF ATOMS
24
ITEM: BOX BOUNDS pp pp pp
-5.4458069063278991e-03 6.2054458069063330e+00
-5.4458069063278991e-03 6.2054458069063330e+00
-5.4458069063278991e-03 6.2054458069063330e+00
ITEM: ATOMS id type xs ys zs
1 2 0.507123 1.00424 0.280972
2 1 0.44857 0.127381 0.36659
3 1 0.457188 0.865453 0.345515
13 2 0.332363 0.30544 0.641589
14 1 0.183362 0.279208 0.586516
15 1 0.337725 0.273331 0.799266
7 2 0.154955 0.592958 0.179249
8 1 0.0364823 0.533235 0.270461
9 1 0.0951073 0.704636 0.0799102
19 2 0.182998 0.98073 0.92225
20 1 0.232236 0.885156 0.802402
21 1 0.307536 0.0145782 0.0185147
4 2 0.86639 0.267588 0.45692
5 1 0.821284 0.305404 0.606778
6 1 0.739673 0.210757 0.375465
16 2 0.785958 0.296464 0.911263
17 1 0.801267 0.45559 0.930395
18 1 0.859657 0.220486 1.03258
10 2 0.727608 0.814653 0.962399
11 1 0.637062 0.884451 0.0757645
12 1 0.865474 0.896197 0.946095
22 2 0.454407 0.738168 0.629281
23 1 0.425499 0.580843 0.610971
24 1 0.564523 0.759408 0.744805
