Some atoms are deleted, so indices aren't sequential/continuous

10 atoms
9 bonds
0 angles
0 dihedrals
0 impropers

2 atom types 
2 bond types 
1 angle types 
1 dihedral types 

0.00 55.4228286743 xlo xhi 
0.00 55.4228286743 ylo yhi 
0.00 55.4228286743 zlo zhi 

Masses

  1 0.0010078
  2 0.012     

Atoms

  2006 1 1 0.0 11.540184021  49.6138534546 20.8459072113
  2007 1 2 0.0 13.0085144043 50.6062469482 19.9141769409
  2008 1 1 0.0 12.9834518433 51.1562423706 18.9713554382
  2009 1 1 0.0 12.6588821411 51.4160842896 20.5548400879
  10   1 2 0.0 14.5285415649 50.6892776489 19.9419136047
  1    1 2 0.0 11.8998565674 48.4455718994 19.0971984863
  1002 1 1 0.0 12.8466796875 48.1473007202 18.6461906433
  2003 1 1 0.0 11.0093536377 48.7145767212 18.5247917175
  2004 1 2 0.0 12.4033203125 49.2582168579 20.2825050354
  2005 1 1 0.0 13.0947723389 48.8437194824 21.0175533295

Bonds

  1 1 1    1002
  2 1 1    2003
  3 2 1    2004
  4 1 2004 2005
  5 1 2004 2006
  6 2 2004 2007
  7 1 2007 2008
  8 1 2007 2009
  9 2 2007 10
