ITEM: TIMESTEP
0
ITEM: NUMBER OF ATOMS
7
ITEM: BOX BOUNDS pp pp pp
0.0000000000000000e+00 1.0000000000000000e+01
0.0000000000000000e+00 1.0000000000000000e+01
0.0000000000000000e+00 1.0000000000000000e+01
ITEM: ATOMS id mol type q x y z ix iy iz vx vy vz fx fy fz
4 0 2 0 5.89113 3.39852 0.236896 0 0 0 -0.0704441 0.227976 0.996454 -0.0384407 -0.027219 0.0347675
1 0 1 0 4.99944 5.00015 5.50088 0 0 0 1.67739 0.920692 -2.57313 -0.00114452 0.000290546 -0.00139512
2 0 1 0 5 5 4.50088 0 0 0 0.62476 1.06359 -0.0911177 -2.59759e-06 6.80857e-07 0.00465101
6 0 2 0 8.2792 8.45985 4.67053 0 0 0 0.287427 -0.546292 -1.89933 0 0 0
3 0 2 0 3.36201 5.52239 8.66949 0 0 0 -0.952907 -0.976372 3.13676 0.00617181 -0.00298752 -0.000692718
5 0 2 0 6.58676 3.97905 9.57615 0 0 0 -0.764902 -2.00454 0.652142 0.0467422 0.0585064 -0.0360363
7 0 2 0 7.62107 6.39056 9.73656 0 0 0 -0.801326 1.31494 -0.221781 -0.0133262 -0.0285912 -0.00129431
ITEM: TIMESTEP
1000
ITEM: NUMBER OF ATOMS
7
ITEM: BOX BOUNDS pp pp pp
0.0000000000000000e+00 1.0000000000000000e+01
0.0000000000000000e+00 1.0000000000000000e+01
0.0000000000000000e+00 1.0000000000000000e+01
ITEM: ATOMS id mol type q x y z ix iy iz vx vy vz fx fy fz
4 0 2 0 3.94665 -0.0323028 8.68651 0 0 0 -0.161974 -0.382081 0.798421 0.00521574 0.00769953 0.00166801
1 0 1 0 8.86026 1.45707 6.49955 1 1 -2 2.56985 0.999077 -2.32084 9.89117 3.11795 4.16786
2 0 1 0 7.97925 1.17482 6.13483 1 1 -2 0.143288 -0.0643266 -1.75995 -9.88081 -3.17777 -4.06472
6 0 2 0 5.99448 3.88197 6.60468 0 1 -1 -0.694542 1.53609 0.18424 0.0038944 -0.00933068 0.00627887
3 0 2 0 5.77413 2.29184 9.29137 -1 -1 3 -0.279753 -2.05124 2.46002 -0.00266798 -0.00561799 -0.0113445
5 0 2 0 0.31665 8.73726 7.2999 0 -2 1 0.0467709 -1.59613 0.0234574 -0.0414919 0.047346 0.0252183
7 0 2 0 8.86819 10.2398 8.37454 -1 1 0 -1.62364 1.5586 0.614649 0.024686 0.019719 -0.124957
ITEM: TIMESTEP
2000
ITEM: NUMBER OF ATOMS
7
ITEM: BOX BOUNDS pp pp pp
0.0000000000000000e+00 1.0000000000000000e+01
0.0000000000000000e+00 1.0000000000000000e+01
0.0000000000000000e+00 1.0000000000000000e+01
ITEM: ATOMS id mol type q x y z ix iy iz vx vy vz fx fy fz
1 0 1 0 2.56616 6.11565 7.37956 3 1 -4 0.0243353 -0.367818 -0.102071 2.48926 1.21693 -1.15048
2 0 1 0 1.71413 6.13509 7.90135 3 1 -4 2.11307 0.0287745 -1.49691 -1.11544 0.0722323 0.689288
6 0 2 0 8.68886 4.14263 8.29898 -1 2 -1 -0.646657 -0.404476 0.292564 0.00294106 0.00184583 -0.0004509
3 0 2 0 0.709966 -0.100163 1.44498 -1 -3 6 -0.61121 -1.74802 1.39723 0 0 0
7 0 2 0 2.98365 5.50022 4.32967 -2 3 1 -1.14938 1.11605 0.443808 -0.000791519 0.00601418 0.0160683
5 0 2 0 1.54344 8.91853 6.46247 0 -3 1 -0.130583 1.71424 -1.00137 0.015867 -0.0269899 0.00946186
4 0 2 0 3.53342 7.03855 7.07437 0 -1 1 0.400428 -0.338748 0.466751 -1.39184 -1.27004 0.436115
