DL_POLY Classic: example of HISTORY
         0         1         3
timestep         1         3         0         1    0.000500
   35.607       0.000       0.000    
   0.000       35.607       0.000    
   0.000       0.000       35.607    
C                1   39.098300    0.994000
 -1.3006E+01  1.1459E+01 -1.6983E+01
B                2   39.098300    0.994000
 -1.1628E+01  1.0204E+01 -1.7025E+01
A                3   39.098300    0.994000
 -1.4345E+01  1.2719E+01 -1.6813E+01
timestep      2001         3         0         1    0.000500
   35.607       0.000       0.000    
   0.000       35.607       0.000    
   0.000       0.000       35.607    
C                1   39.098300    0.994000
 -1.2998E+01  1.1186E+01 -1.7425E+01
B                1   39.098300    0.994000
 -1.1677E+01  9.9189E+00 -1.7225E+01
A                1   39.098300    0.994000
 -1.4141E+01  1.2646E+01 -1.7451E+01
timestep      4001         3         0         1    0.000500
   35.607       0.000       0.000    
   0.000       35.607       0.000    
   0.000       0.000       35.607    
C                1   39.098300    0.994000
 -1.3124E+01  1.1173E+01 -1.7308E+01
B                1   39.098300    0.994000
 -1.1651E+01  1.0041E+01 -1.7020E+01
A                1   39.098300    0.994000
 -1.4614E+01  1.2287E+01 -1.7416E+01
