
Running Job 1 of 1 dvb_ir.in
qchem dvb_ir.in_4469.0 /home/eric/scratch/qchem/qchem4469/ 1
                  Welcome to Q-Chem
     A Quantum Leap Into The Future Of Chemistry


 Q-Chem 4.2, Q-Chem, Inc., Pleasanton, CA (2014).

 Y. Shao,  Z. Gan,  E. Epifanovsky,  A. T. B. Gilbert,  M. Wormit,  
 J. Kussmann,  A. W. Lange,  A. Behn,  J. Deng,  X. Feng,  D. Ghosh,  
 M. Goldey,  P. R. Horn,  L. D. Jacobson,  I. Kaliman,  R. Z. Khaliullin,  
 T. Kus,  A. Landau,  J. Liu,  E. I. Proynov,  Y. M. Rhee,  R. M. Richard,  
 M. A. Rohrdanz,  R. P. Steele,  E. J. Sundstrom,  H. L. Woodcock III,  
 P. M. Zimmerman,  D. Zuev,  B. Albrecht,  E. Alguire,  B. Austin,  
 G. J. O. Beran,  Y. A. Bernard,  E. Berquist,  K. Brandhorst,  
 K. B. Bravaya,  S. T. Brown,  D. Casanova,  C.-M. Chang,  Y. Chen,  
 S. H. Chien,  K. D. Closser,  D. L. Crittenden,  M. Diedenhofen,  
 R. A. DiStasio Jr.,  H. Do,  A. D. Dutoi,  R. G. Edgar,  S. Fatehi,  
 L. Fusti-Molnar,  A. Ghysels,  A. Golubeva-Zadorozhnaya,  J. Gomes,  
 M. W. D. Hanson-Heine,  P. H. P. Harbach,  A. W. Hauser,  E. G. Hohenstein,  
 Z. C. Holden,  T.-C. Jagau,  H. Ji,  B. Kaduk,  K. Khistyaev,  Jaehoon Kim,  
 Jihan Kim,  R. A. King,  P. Klunzinger,  D. Kosenkov,  T. Kowalczyk,  
 C. M. Krauter,  K. U. Lao,  A. Laurent,  K. V. Lawler,  S. V. Levchenko,  
 C. Y. Lin,  F. Liu,  E. Livshits,  R. C. Lochan,  A. Luenser,  P. Manohar,  
 S. F. Manzer,  S.-P. Mao,  N. Mardirossian,  A. V. Marenich,  S. A. Maurer,  
 N. J. Mayhall,  C. M. Oana,  R. Olivares-Amaya,  D. P. O'Neill,  
 J. A. Parkhill,  T. M. Perrine,  R. Peverati,  P. A. Pieniazek,  A. Prociuk,  
 D. R. Rehn,  E. Rosta,  N. J. Russ,  N. Sergueev,  S. M. Sharada,  
 S. Sharma,  D. W. Small,  A. Sodt,  T. Stein,  D. Stuck,  Y.-C. Su,  
 A. J. W. Thom,  T. Tsuchimochi,  L. Vogt,  O. Vydrov,  T. Wang,  
 M. A. Watson,  J. Wenzel,  A. White,  C. F. Williams,  V. Vanovschi,  
 S. Yeganeh,  S. R. Yost,  Z.-Q. You,  I. Y. Zhang,  X. Zhang,  Y. Zhao,  
 B. R. Brooks,  G. K. L. Chan,  D. M. Chipman,  C. J. Cramer,  
 W. A. Goddard III,  M. S. Gordon,  W. J. Hehre,  A. Klamt,  
 H. F. Schaefer III,  M. W. Schmidt,  C. D. Sherrill,  D. G. Truhlar,  
 A. Warshel,  X. Xu,  A. Aspuru-Guzik,  R. Baer,  A. T. Bell,  N. A. Besley,  
 J.-D. Chai,  A. Dreuw,  B. D. Dunietz,  T. R. Furlani,  S. R. Gwaltney,  
 C.-P. Hsu,  Y. Jung,  J. Kong,  D. S. Lambrecht,  W. Liang,  C. Ochsenfeld,  
 V. A. Rassolov,  L. V. Slipchenko,  J. E. Subotnik,  T. Van Voorhis,  
 J. M. Herbert,  A. I. Krylov,  P. M. W. Gill,  M. Head-Gordon

 Contributors to earlier versions of Q-Chem not listed above: 
 R. D. Adamson,  J. Baker,  E. F. C. Byrd,  A. K. Chakraborty,  C.-L. Cheng,  
 H. Dachsel,  R. J. Doerksen,  G. Hawkins,  A. Heyden,  S. Hirata,  
 G. Kedziora,  F. J. Keil,  C. Kelley,  P. P. Korambath,  W. Kurlancheek,  
 A. M. Lee,  M. S. Lee,  D. Liotard,  I. Lotan,  P. E. Maslen,  N. Nair,  
 D. Neuhauser,  R. Olson,  B. Peters,  J. Ritchie,  N. E. Schultz,  
 N. Shenvi,  A. C. Simmonett,  K. S. Thanthiriwatte,  Q. Wu,  W. Zhang

 Q-Chem 4.2.0 for Intel X86 Linux

 Parts of Q-Chem use Armadillo 4.100.2 (Dirt Cruiser).
 http://arma.sourceforge.net/

 Q-Chem begins on Sun Jul  6 13:01:29 2014  

Host: 
0

     Scratch files written to /home/eric/scratch/qchem/qchem4469//
 May1314 814_zgan -1
Finally everything over in PARseQInput

--------------------------------------------------------------
User input:
--------------------------------------------------------------
$comment
Divinylbenzene, frequencies (analytic), RB3LYP/STO-3G
$end

$rem
jobtype = freq
method = b3lyp
basis = sto-3g
$end

$molecule
0 1
C             -1.4152533224   0.2302217854   0.0000000000
C              1.4152533224  -0.2302217854   0.0000000000
C             -0.4951331558   1.3144608674   0.0000000000
C              0.4951331558  -1.3144608674   0.0000000000
C              0.8894090436   1.0909493743   0.0000000000
C             -0.8894090436  -1.0909493743   0.0000000000
H             -0.8795511985   2.3437343748   0.0000000000
H              0.8795511985  -2.3437343748   0.0000000000
H              1.5779041557   1.9450061275   0.0000000000
H             -1.5779041557  -1.9450061275   0.0000000000
C              2.8845844962  -0.5210893778   0.0000000000
C             -2.8845844962   0.5210893778   0.0000000000
H              3.1403356810  -1.5919605685   0.0000000000
H             -3.1403356810   1.5919605685   0.0000000000
C              3.8800428103   0.3822535424   0.0000000000
C             -3.8800428103  -0.3822535424   0.0000000000
H              3.6946765858   1.4624389570   0.0000000000
H             -3.6946765858  -1.4624389570   0.0000000000
H              4.9316453546   0.0711049543   0.0000000000
H             -4.9316453546  -0.0711049543   0.0000000000
$end
--------------------------------------------------------------
 ----------------------------------------------------------------
             Standard Nuclear Orientation (Angstroms)
    I     Atom           X                Y                Z
 ----------------------------------------------------------------
    1      C       1.4130874143     0.2431624904     0.0000000000
    2      C      -1.4130874143    -0.2431624904     0.0000000000
    3      C       0.4830843885     1.3189365745     0.0000000000
    4      C      -0.4830843885    -1.3189365745     0.0000000000
    5      C      -0.8993545914     1.0827651191     0.0000000000
    6      C       0.8993545914    -1.0827651191     0.0000000000
    7      H       0.8580679199     2.3516846249     0.0000000000
    8      H      -0.8580679199    -2.3516846249     0.0000000000
    9      H      -1.5956359656     1.9304860077     0.0000000000
   10      H       1.5956359656    -1.9304860077     0.0000000000
   11      C      -2.8796954734    -0.5474630906     0.0000000000
   12      C       2.8796954734     0.5474630906     0.0000000000
   13      H      -3.1256368923    -1.6206297105     0.0000000000
   14      H       3.1256368923     1.6206297105     0.0000000000
   15      C      -3.8833781934     0.3467330199     0.0000000000
   16      C       3.8833781934    -0.3467330199     0.0000000000
   17      H      -3.7079040184     1.4285694128     0.0000000000
   18      H       3.7079040184    -1.4285694128     0.0000000000
   19      H      -4.9320895300     0.0259747190     0.0000000000
   20      H       4.9320895300    -0.0259747190     0.0000000000
 ----------------------------------------------------------------
 Molecular Point Group                 C2h   NOp =  4
 Largest Abelian Subgroup              C2h   NOp =  4
 Nuclear Repulsion Energy =   445.9369799766 hartrees
 There are       35 alpha and       35 beta electrons
 Requested basis set is STO-3G
 There are 30 shells and 60 basis functions

Total QAlloc Memory Limit   2000 MB
Mega-Array Size        77 MB
MEM_STATIC part        62 MB
 A cutoff of  1.0D-11 yielded    398 shell pairs
 There are      1766 function pairs
 Smallest overlap matrix eigenvalue = 1.81E-01
 Guess from superposition of atomic densities
 Warning:  Energy on first SCF cycle will be non-variational
 A restricted hybrid HF-DFT SCF calculation will be
 performed using Pulay DIIS extrapolation
 Exchange:     0.2000 Hartree-Fock + 0.0800 Slater + 0.7200 Becke88
 Correlation:  0.8100 LYP + 0.1900 VWN1RPA
 Using SG-1 standard quadrature grid
 SCF converges when DIIS error is below 1.0E-08
 ---------------------------------------
  Cycle       Energy         DIIS Error
 ---------------------------------------
    1    -381.8040982378      1.36E-01
    2    -382.3012721961      3.18E-03
    3    -382.3005342638      3.66E-03
    4    -382.3075342268      1.14E-03
    5    -382.3082011562      3.69E-04
    6    -382.3082737018      3.75E-05
    7    -382.3082746208      3.72E-06
    8    -382.3082746196      8.79E-07
    9    -382.3082745583      4.62E-07
   10    -382.3082745589      3.92E-08
   11    -382.3082745715      6.45E-09 Convergence criterion met
 ---------------------------------------
 SCF time:  CPU 6.14 s  wall 6.15 s
 SCF   energy in the final basis set = -382.3082745715
 Total energy in the final basis set = -382.3082745715
 Analysis of SCF Wavefunction
 
 --------------------------------------------------------------
             Orbital Energies (a.u.) and Symmetries
 --------------------------------------------------------------
 
 Alpha MOs, Restricted
 -- Occupied --                  
-10.020 -10.020 -10.008 -10.008 -10.007 -10.007 -10.006 -10.006
  1 Bu    1 Ag    2 Ag    2 Bu    3 Ag    3 Bu    4 Bu    4 Ag                 
 -9.992  -9.992  -0.809  -0.754  -0.718  -0.700  -0.667  -0.589
  5 Ag    5 Bu    6 Ag    6 Bu    7 Ag    7 Bu    8 Bu    8 Ag                 
 -0.559  -0.531  -0.510  -0.458  -0.439  -0.411  -0.398  -0.396
  9 Ag    9 Bu   10 Ag   11 Ag   10 Bu   11 Bu   12 Bu   12 Ag                 
 -0.374  -0.351  -0.347  -0.324  -0.311  -0.293  -0.287  -0.263
 13 Bu   14 Bu   13 Ag    1 Au   15 Bu   14 Ag   15 Ag    1 Bg                 
 -0.212  -0.195  -0.153
  2 Au    2 Bg    3 Bg                                                         
 -- Virtual --                   
  0.038   0.090   0.111   0.182   0.272   0.332   0.341   0.380
  3 Au    4 Au    4 Bg    5 Au    5 Bg   16 Ag   16 Bu   17 Bu                 
  0.381   0.410   0.411   0.426   0.439   0.454   0.478   0.526
 17 Ag   18 Ag   18 Bu   19 Bu   19 Ag   20 Bu   20 Ag   21 Ag                 
  0.546   0.576   0.598   0.625   0.640   0.683   0.717   0.779
 21 Bu   22 Ag   22 Bu   23 Bu   23 Ag   24 Ag   24 Bu   25 Ag                 
  0.794
 25 Bu                                                                         
 
 Beta MOs, Restricted
 -- Occupied --                  
-10.020 -10.020 -10.008 -10.008 -10.007 -10.007 -10.006 -10.006
  1 Bu    1 Ag    2 Ag    2 Bu    3 Ag    3 Bu    4 Bu    4 Ag                 
 -9.992  -9.992  -0.809  -0.754  -0.718  -0.700  -0.667  -0.589
  5 Ag    5 Bu    6 Ag    6 Bu    7 Ag    7 Bu    8 Bu    8 Ag                 
 -0.559  -0.531  -0.510  -0.458  -0.439  -0.411  -0.398  -0.396
  9 Ag    9 Bu   10 Ag   11 Ag   10 Bu   11 Bu   12 Bu   12 Ag                 
 -0.374  -0.351  -0.347  -0.324  -0.311  -0.293  -0.287  -0.263
 13 Bu   14 Bu   13 Ag    1 Au   15 Bu   14 Ag   15 Ag    1 Bg                 
 -0.212  -0.195  -0.153
  2 Au    2 Bg    3 Bg                                                         
 -- Virtual --                   
  0.038   0.090   0.111   0.182   0.272   0.332   0.341   0.380
  3 Au    4 Au    4 Bg    5 Au    5 Bg   16 Ag   16 Bu   17 Bu                 
  0.381   0.410   0.411   0.426   0.439   0.454   0.478   0.526
 17 Ag   18 Ag   18 Bu   19 Bu   19 Ag   20 Bu   20 Ag   21 Ag                 
  0.546   0.576   0.598   0.625   0.640   0.683   0.717   0.779
 21 Bu   22 Ag   22 Bu   23 Bu   23 Ag   24 Ag   24 Bu   25 Ag                 
  0.794
 25 Bu                                                                         
 --------------------------------------------------------------
 
          Ground-State Mulliken Net Atomic Charges

     Atom                 Charge (a.u.)
  ----------------------------------------
      1 C                    -0.004404
      2 C                    -0.004405
      3 C                    -0.076752
      4 C                    -0.076752
      5 C                    -0.077083
      6 C                    -0.077083
      7 H                     0.077995
      8 H                     0.077995
      9 H                     0.079316
     10 H                     0.079316
     11 C                    -0.076366
     12 C                    -0.076366
     13 H                     0.076693
     14 H                     0.076693
     15 C                    -0.154814
     16 C                    -0.154814
     17 H                     0.076117
     18 H                     0.076117
     19 H                     0.079299
     20 H                     0.079299
  ----------------------------------------
  Sum of atomic charges =     0.000000

 -----------------------------------------------------------------
                    Cartesian Multipole Moments
 -----------------------------------------------------------------
    Charge (ESU x 10^10)
                 0.0000
    Dipole Moment (Debye)
         X       0.0000      Y       0.0000      Z       0.0000
       Tot       0.0000
    Quadrupole Moments (Debye-Ang)
        XX     -50.7269     XY       0.0867     YY     -50.2324
        XZ       0.0000     YZ       0.0000     ZZ     -58.6265
    Octopole Moments (Debye-Ang^2)
       XXX       0.0000    XXY       0.0000    XYY       0.0000
       YYY       0.0000    XXZ       0.0000    XYZ       0.0000
       YYZ       0.0000    XZZ       0.0000    YZZ       0.0000
       ZZZ       0.0000
    Hexadecapole Moments (Debye-Ang^3)
      XXXX   -1859.8313   XXXY       7.2306   XXYY    -367.7962
      XYYY       1.6044   YYYY    -330.1048   XXXZ       0.0000
      XXYZ       0.0000   XYYZ       0.0000   YYYZ       0.0000
      XXZZ    -367.2651   XYZZ      -0.0183   YYZZ     -72.2260
      XZZZ       0.0000   YZZZ       0.0000   ZZZZ     -47.6128
 -----------------------------------------------------------------
 Calculating MO derivatives via CPSCF
OV_DIM:  Setting MaxSz  = 875
OV_DIM:  Setting MaxSpc = 875
   1         3          60      0.298172    0.106431
   2         3          60      0.013267    0.004972
   3        18          45      0.000365    0.000158
   4        61           2      0.000004    0.000003
   5        63           0      0.000000    0.000000    Roots Converged
 Calculating analytic Hessian of the SCF energy
 Polarizability Matrix (a.u.)
            1           2           3
    1-142.5715328   8.1707731  -0.0000000
    2   8.1707731 -68.5450458  -0.0000000
    3  -0.0000000  -0.0000000 -11.3467320
 
 Direct stationary perturbation theory relativistic correction:
 
 rels  =       0.083838052926
 relv  =      -0.405950634570
 rel2e =       0.217522345348
 E_rel =      -0.104590236296
 
 Hessian of the SCF Energy
            1           2           3           4           5           6
    1   0.7052406   0.0019112  -0.0000000   0.0101475   0.0161943   0.0000000
    2   0.0019112   0.7248584  -0.0000000   0.0161943  -0.0839666  -0.0000000
    3  -0.0000000  -0.0000000   0.1580020  -0.0000000   0.0000000  -0.0089599
    4   0.0101475   0.0161943  -0.0000000   0.7052406   0.0019112   0.0000000
    5   0.0161943  -0.0839666   0.0000000   0.0019112   0.7248584   0.0000000
    6   0.0000000  -0.0000000  -0.0089599   0.0000000   0.0000000   0.1580020
    7  -0.2098820   0.0534529   0.0000000  -0.0151978  -0.1089287  -0.0000000
    8   0.1385054  -0.2646450   0.0000000  -0.0373817   0.0204310  -0.0000000
    9   0.0000000  -0.0000000  -0.0664927  -0.0000000   0.0000000   0.0069538
   10  -0.0151978  -0.1089287   0.0000000  -0.2098820   0.0534529  -0.0000000
   11  -0.0373817   0.0204310   0.0000000   0.1385054  -0.2646450   0.0000000
   12   0.0000000   0.0000000   0.0069538  -0.0000000   0.0000000  -0.0664927
   13  -0.0557395   0.0799303   0.0000000  -0.1531309  -0.0142349  -0.0000000
   14   0.0098154   0.0617489  -0.0000000  -0.0952945  -0.3175425   0.0000000
   15   0.0000000  -0.0000000   0.0070765  -0.0000000  -0.0000000  -0.0677516
   16  -0.1531309  -0.0142349   0.0000000  -0.0557395   0.0799303   0.0000000
   17  -0.0952945  -0.3175425  -0.0000000   0.0098154   0.0617489   0.0000000
   18   0.0000000   0.0000000  -0.0677516   0.0000000   0.0000000   0.0070765
   19   0.0098409   0.0233724   0.0000000  -0.0052477   0.0014578  -0.0000000
   20  -0.0133562  -0.0147765   0.0000000  -0.0000031   0.0012265  -0.0000000
   21  -0.0000000   0.0000000   0.0024067   0.0000000   0.0000000   0.0088137
   22  -0.0052477   0.0014578   0.0000000   0.0098409   0.0233724   0.0000000
   23  -0.0000031   0.0012265  -0.0000000  -0.0133562  -0.0147765  -0.0000000
   24   0.0000000   0.0000000   0.0088137   0.0000000   0.0000000   0.0024067
   25  -0.0039958  -0.0033881   0.0000000   0.0125542  -0.0140510  -0.0000000
   26  -0.0018391   0.0001234  -0.0000000   0.0224531  -0.0154882  -0.0000000
   27   0.0000000  -0.0000000   0.0088420   0.0000000   0.0000000   0.0028174
   28   0.0125542  -0.0140510  -0.0000000  -0.0039958  -0.0033881  -0.0000000
   29   0.0224531  -0.0154882  -0.0000000  -0.0018391   0.0001234   0.0000000
   30  -0.0000000   0.0000000   0.0028174   0.0000000   0.0000000   0.0088420
   31  -0.0060444  -0.0003636  -0.0000000  -0.2368400  -0.0269582  -0.0000000
   32   0.0015326  -0.0002100  -0.0000000  -0.0567622  -0.1240901  -0.0000000
   33   0.0000000  -0.0000000  -0.0009800   0.0000000  -0.0000000  -0.0634559
   34  -0.2368400  -0.0269582  -0.0000000  -0.0060444  -0.0003636   0.0000000
   35  -0.0567622  -0.1240901  -0.0000000   0.0015326  -0.0002100  -0.0000000
   36  -0.0000000  -0.0000000  -0.0634559  -0.0000000  -0.0000000  -0.0009800
   37   0.0001595   0.0000761   0.0000000  -0.0067989  -0.0320353   0.0000000
   38   0.0000577   0.0001791   0.0000000   0.0036504  -0.0026692   0.0000000
   39   0.0000000  -0.0000000   0.0001011  -0.0000000  -0.0000000   0.0023691
   40  -0.0067989  -0.0320353   0.0000000   0.0001595   0.0000761  -0.0000000
   41   0.0036504  -0.0026692   0.0000000   0.0000577   0.0001791   0.0000000
   42   0.0000000   0.0000000   0.0023691  -0.0000000   0.0000000   0.0001011
   43   0.0018264   0.0009384   0.0000000  -0.0483552   0.0211803  -0.0000000
   44  -0.0019377   0.0000783   0.0000000   0.0127925   0.0175110   0.0000000
   45   0.0000000   0.0000000  -0.0000411  -0.0000000  -0.0000000   0.0055041
   46  -0.0483552   0.0211803  -0.0000000   0.0018264   0.0009384  -0.0000000
   47   0.0127925   0.0175110   0.0000000  -0.0019377   0.0000783   0.0000000
   48   0.0000000  -0.0000000   0.0055041  -0.0000000  -0.0000000  -0.0000411
   49  -0.0000444  -0.0000033   0.0000000   0.0014486  -0.0014615   0.0000000
   50  -0.0001210  -0.0000798   0.0000000  -0.0014052   0.0006097  -0.0000000
   51  -0.0000000  -0.0000000  -0.0000791   0.0000000   0.0000000  -0.0081816
   52   0.0014486  -0.0014615   0.0000000  -0.0000444  -0.0000033   0.0000000
   53  -0.0014052   0.0006097   0.0000000  -0.0001210  -0.0000798   0.0000000
   54  -0.0000000   0.0000000  -0.0081816  -0.0000000   0.0000000  -0.0000791
   55   0.0001217   0.0001588  -0.0000000  -0.0000628   0.0027521  -0.0000000
   56  -0.0000632   0.0000584  -0.0000000   0.0012513  -0.0033567  -0.0000000
   57   0.0000000   0.0000000   0.0001521  -0.0000000  -0.0000000   0.0129034
   58  -0.0000628   0.0027521   0.0000000   0.0001217   0.0001588  -0.0000000
   59   0.0012513  -0.0033567   0.0000000  -0.0000632   0.0000584   0.0000000
   60  -0.0000000   0.0000000   0.0129034   0.0000000   0.0000000   0.0001521
            7           8           9          10          11          12
    1  -0.2098820   0.1385054   0.0000000  -0.0151978  -0.0373817   0.0000000
    2   0.0534529  -0.2646450  -0.0000000  -0.1089287   0.0204310   0.0000000
    3   0.0000000   0.0000000  -0.0664927   0.0000000   0.0000000   0.0069538
    4  -0.0151978  -0.0373817  -0.0000000  -0.2098820   0.1385054  -0.0000000
    5  -0.1089287   0.0204310   0.0000000   0.0534529  -0.2646450   0.0000000
    6  -0.0000000  -0.0000000   0.0069538  -0.0000000   0.0000000  -0.0664927
    7   0.7575899   0.0563340  -0.0000000  -0.0769292   0.0266326   0.0000000
    8   0.0563340   0.8252340  -0.0000000   0.0266326  -0.0078883  -0.0000000
    9  -0.0000000  -0.0000000   0.1412660   0.0000000   0.0000000  -0.0071147
   10  -0.0769292   0.0266326   0.0000000   0.7575899   0.0563340  -0.0000000
   11   0.0266326  -0.0078883   0.0000000   0.0563340   0.8252340   0.0000000
   12   0.0000000  -0.0000000  -0.0071147  -0.0000000   0.0000000   0.1412660
   13  -0.3771256  -0.0898489   0.0000000   0.0746036  -0.0048103  -0.0000000
   14   0.0127061  -0.1542047   0.0000000   0.0540651  -0.0592493  -0.0000000
   15   0.0000000   0.0000000  -0.0623463  -0.0000000  -0.0000000   0.0064750
   16   0.0746036  -0.0048103  -0.0000000  -0.3771256  -0.0898489   0.0000000
   17   0.0540651  -0.0592493  -0.0000000   0.0127061  -0.1542047  -0.0000000
   18  -0.0000000   0.0000000   0.0064750   0.0000000  -0.0000000  -0.0623463
   19  -0.1061320  -0.1097878  -0.0000000  -0.0005073   0.0005894   0.0000000
   20  -0.1097837  -0.3693567  -0.0000000   0.0007786   0.0010334  -0.0000000
   21   0.0000000  -0.0000000  -0.0400370   0.0000000  -0.0000000  -0.0008995
   22  -0.0005073   0.0005894   0.0000000  -0.1061320  -0.1097878   0.0000000
   23   0.0007786   0.0010334  -0.0000000  -0.1097837  -0.3693567  -0.0000000
   24   0.0000000  -0.0000000  -0.0008995  -0.0000000  -0.0000000  -0.0400370
   25  -0.0135564   0.0281655  -0.0000000  -0.0015065  -0.0025386  -0.0000000
   26  -0.0114306   0.0091814  -0.0000000  -0.0040766  -0.0037479   0.0000000
   27  -0.0000000   0.0000000   0.0036264  -0.0000000   0.0000000   0.0077202
   28  -0.0015065  -0.0025386  -0.0000000  -0.0135564   0.0281655   0.0000000
   29  -0.0040766  -0.0037479   0.0000000  -0.0114306   0.0091814   0.0000000
   30   0.0000000  -0.0000000   0.0077202  -0.0000000  -0.0000000   0.0036264
   31   0.0101367  -0.0016214   0.0000000  -0.0445329   0.0063238   0.0000000
   32  -0.0007783  -0.0064261  -0.0000000   0.0318614   0.0066474  -0.0000000
   33  -0.0000000  -0.0000000   0.0068896  -0.0000000  -0.0000000   0.0039577
   34  -0.0445329   0.0063238  -0.0000000   0.0101367  -0.0016214  -0.0000000
   35   0.0318614   0.0066474   0.0000000  -0.0007783  -0.0064261   0.0000000
   36   0.0000000  -0.0000000   0.0039577  -0.0000000   0.0000000   0.0068896
   37   0.0002736  -0.0017055  -0.0000000   0.0017309  -0.0022188  -0.0000000
   38   0.0001675  -0.0001677  -0.0000000   0.0024253   0.0015029  -0.0000000
   39  -0.0000000  -0.0000000   0.0000033   0.0000000   0.0000000  -0.0008605
   40   0.0017309  -0.0022188   0.0000000   0.0002736  -0.0017055   0.0000000
   41   0.0024253   0.0015029   0.0000000   0.0001675  -0.0001677   0.0000000
   42  -0.0000000   0.0000000  -0.0008605   0.0000000  -0.0000000   0.0000033
   43  -0.0017202   0.0014403  -0.0000000   0.0029531  -0.0070420   0.0000000
   44   0.0029601  -0.0006043  -0.0000000  -0.0071087   0.0009724  -0.0000000
   45   0.0000000  -0.0000000  -0.0004599   0.0000000  -0.0000000   0.0014414
   46   0.0029531  -0.0070420  -0.0000000  -0.0017202   0.0014403   0.0000000
   47  -0.0071087   0.0009724  -0.0000000   0.0029601  -0.0006043   0.0000000
   48  -0.0000000   0.0000000   0.0014414   0.0000000   0.0000000  -0.0004599
   49   0.0001686  -0.0002484  -0.0000000   0.0000146  -0.0000549  -0.0000000
   50  -0.0000344   0.0003905   0.0000000  -0.0001469  -0.0001110  -0.0000000
   51   0.0000000  -0.0000000   0.0001406  -0.0000000   0.0000000   0.0000350
   52   0.0000146  -0.0000549   0.0000000   0.0001686  -0.0002484   0.0000000
   53  -0.0001469  -0.0001110  -0.0000000  -0.0000344   0.0003905  -0.0000000
   54   0.0000000   0.0000000   0.0000350   0.0000000   0.0000000   0.0001406
   55   0.0000149  -0.0002311   0.0000000  -0.0003959  -0.0005016   0.0000000
   56  -0.0000121   0.0002104   0.0000000   0.0009164   0.0007973   0.0000000
   57   0.0000000   0.0000000  -0.0003251   0.0000000  -0.0000000   0.0000269
   58  -0.0003959  -0.0005016  -0.0000000   0.0000149  -0.0002311   0.0000000
   59   0.0009164   0.0007973   0.0000000  -0.0000121   0.0002104  -0.0000000
   60  -0.0000000  -0.0000000   0.0000269   0.0000000  -0.0000000  -0.0003251
           13          14          15          16          17          18
    1  -0.0557395   0.0098154   0.0000000  -0.1531309  -0.0952945   0.0000000
    2   0.0799303   0.0617489  -0.0000000  -0.0142349  -0.3175425   0.0000000
    3   0.0000000  -0.0000000   0.0070765   0.0000000  -0.0000000  -0.0677516
    4  -0.1531309  -0.0952945  -0.0000000  -0.0557395   0.0098154   0.0000000
    5  -0.0142349  -0.3175425  -0.0000000   0.0799303   0.0617489   0.0000000
    6  -0.0000000   0.0000000  -0.0677516   0.0000000   0.0000000   0.0070765
    7  -0.3771256   0.0127061   0.0000000   0.0746036   0.0540651  -0.0000000
    8  -0.0898489  -0.1542047   0.0000000  -0.0048103  -0.0592493   0.0000000
    9   0.0000000   0.0000000  -0.0623463  -0.0000000  -0.0000000   0.0064750
   10   0.0746036   0.0540651  -0.0000000  -0.3771256   0.0127061   0.0000000
   11  -0.0048103  -0.0592493  -0.0000000  -0.0898489  -0.1542047  -0.0000000
   12  -0.0000000  -0.0000000   0.0064750   0.0000000  -0.0000000  -0.0623463
   13   0.7977085  -0.0698059  -0.0000000  -0.0499919  -0.0427540   0.0000000
   14  -0.0698059   0.7811129   0.0000000  -0.0427540  -0.0325396  -0.0000000
   15  -0.0000000   0.0000000   0.1415518  -0.0000000  -0.0000000  -0.0064777
   16  -0.0499919  -0.0427540  -0.0000000   0.7977085  -0.0698059  -0.0000000
   17  -0.0427540  -0.0325396  -0.0000000  -0.0698059   0.7811129   0.0000000
   18   0.0000000  -0.0000000  -0.0064777  -0.0000000   0.0000000   0.1415518
   19  -0.0056617  -0.0331150  -0.0000000  -0.0036558   0.0024612  -0.0000000
   20   0.0062457   0.0015675   0.0000000   0.0040297  -0.0014862  -0.0000000
   21  -0.0000000   0.0000000   0.0033322  -0.0000000   0.0000000   0.0073987
   22  -0.0036558   0.0024612   0.0000000  -0.0056617  -0.0331150  -0.0000000
   23   0.0040297  -0.0014862  -0.0000000   0.0062457   0.0015675  -0.0000000
   24  -0.0000000  -0.0000000   0.0073987  -0.0000000  -0.0000000   0.0033322
   25  -0.2034888   0.1687744   0.0000000   0.0000747  -0.0009716   0.0000000
   26   0.1695389  -0.2730168  -0.0000000  -0.0010465   0.0004508  -0.0000000
   27   0.0000000  -0.0000000  -0.0403809   0.0000000   0.0000000  -0.0009294
   28   0.0000747  -0.0009716   0.0000000  -0.2034888   0.1687744   0.0000000
   29  -0.0010465   0.0004508  -0.0000000   0.1695389  -0.2730168  -0.0000000
   30  -0.0000000   0.0000000  -0.0009294   0.0000000   0.0000000  -0.0403809
   31  -0.0248883  -0.0213570   0.0000000   0.0068201   0.0063051   0.0000000
   32  -0.0335053   0.0010415   0.0000000   0.0009926  -0.0049189   0.0000000
   33   0.0000000   0.0000000   0.0027814   0.0000000   0.0000000   0.0073996
   34   0.0068201   0.0063051  -0.0000000  -0.0248883  -0.0213570  -0.0000000
   35   0.0009926  -0.0049189  -0.0000000  -0.0335053   0.0010415  -0.0000000
   36   0.0000000  -0.0000000   0.0073996   0.0000000   0.0000000   0.0027814
   37  -0.0053324   0.0017885  -0.0000000   0.0001609   0.0001237  -0.0000000
   38   0.0000787   0.0007048   0.0000000  -0.0000324  -0.0001172  -0.0000000
   39   0.0000000   0.0000000   0.0024439  -0.0000000  -0.0000000  -0.0000269
   40   0.0001609   0.0001237  -0.0000000  -0.0053324   0.0017885  -0.0000000
   41  -0.0000324  -0.0001172   0.0000000   0.0000787   0.0007048  -0.0000000
   42   0.0000000   0.0000000  -0.0000269  -0.0000000  -0.0000000   0.0024439
   43   0.0038966   0.0063741  -0.0000000  -0.0032004  -0.0009036  -0.0000000
   44  -0.0051286  -0.0050551  -0.0000000   0.0014678   0.0019784  -0.0000000
   45   0.0000000   0.0000000   0.0004419  -0.0000000   0.0000000  -0.0001055
   46  -0.0032004  -0.0009036   0.0000000   0.0038966   0.0063741   0.0000000
   47   0.0014678   0.0019784   0.0000000  -0.0051286  -0.0050551  -0.0000000
   48   0.0000000  -0.0000000  -0.0001055  -0.0000000  -0.0000000   0.0004419
   49  -0.0013737   0.0012701  -0.0000000   0.0000522  -0.0001311  -0.0000000
   50  -0.0010547   0.0005197  -0.0000000   0.0000330  -0.0001772   0.0000000
   51  -0.0000000  -0.0000000   0.0001915   0.0000000   0.0000000   0.0002641
   52   0.0000522  -0.0001311   0.0000000  -0.0013737   0.0012701  -0.0000000
   53   0.0000330  -0.0001772  -0.0000000  -0.0010547   0.0005197  -0.0000000
   54  -0.0000000  -0.0000000   0.0002641   0.0000000  -0.0000000   0.0001915
   55   0.0004731   0.0002262  -0.0000000  -0.0002006   0.0004229   0.0000000
   56  -0.0001496  -0.0005546   0.0000000   0.0000543  -0.0002625   0.0000000
   57   0.0000000   0.0000000  -0.0004385  -0.0000000  -0.0000000  -0.0008998
   58  -0.0002006   0.0004229  -0.0000000   0.0004731   0.0002262  -0.0000000
   59   0.0000543  -0.0002625  -0.0000000  -0.0001496  -0.0005546  -0.0000000
   60  -0.0000000   0.0000000  -0.0008998  -0.0000000   0.0000000  -0.0004385
           19          20          21          22          23          24
    1   0.0098409  -0.0133562  -0.0000000  -0.0052477  -0.0000031   0.0000000
    2   0.0233724  -0.0147765   0.0000000   0.0014578   0.0012265   0.0000000
    3   0.0000000   0.0000000   0.0024067   0.0000000  -0.0000000   0.0088137
    4  -0.0052477  -0.0000031   0.0000000   0.0098409  -0.0133562   0.0000000
    5   0.0014578   0.0012265   0.0000000   0.0233724  -0.0147765   0.0000000
    6  -0.0000000  -0.0000000   0.0088137   0.0000000  -0.0000000   0.0024067
    7  -0.1061320  -0.1097837   0.0000000  -0.0005073   0.0007786   0.0000000
    8  -0.1097878  -0.3693567  -0.0000000   0.0005894   0.0010334  -0.0000000
    9  -0.0000000  -0.0000000  -0.0400370   0.0000000  -0.0000000  -0.0008995
   10  -0.0005073   0.0007786   0.0000000  -0.1061320  -0.1097837  -0.0000000
   11   0.0005894   0.0010334  -0.0000000  -0.1097878  -0.3693567  -0.0000000
   12   0.0000000  -0.0000000  -0.0008995   0.0000000  -0.0000000  -0.0400370
   13  -0.0056617   0.0062457  -0.0000000  -0.0036558   0.0040297  -0.0000000
   14  -0.0331150   0.0015675   0.0000000   0.0024612  -0.0014862  -0.0000000
   15  -0.0000000   0.0000000   0.0033322   0.0000000  -0.0000000   0.0073987
   16  -0.0036558   0.0040297  -0.0000000  -0.0056617   0.0062457  -0.0000000
   17   0.0024612  -0.0014862   0.0000000  -0.0331150   0.0015675  -0.0000000
   18  -0.0000000  -0.0000000   0.0073987  -0.0000000  -0.0000000   0.0033322
   19   0.1077383   0.1144341   0.0000000   0.0001199  -0.0001712   0.0000000
   20   0.1144341   0.3796820   0.0000000  -0.0001712  -0.0001968   0.0000000
   21   0.0000000   0.0000000   0.0286191   0.0000000   0.0000000  -0.0010820
   22   0.0001199  -0.0001712   0.0000000   0.1077383   0.1144341   0.0000000
   23  -0.0001712  -0.0001968   0.0000000   0.1144341   0.3796820   0.0000000
   24   0.0000000   0.0000000  -0.0010820   0.0000000   0.0000000   0.0286191
   25   0.0018607   0.0001947  -0.0000000   0.0006097  -0.0006732   0.0000000
   26   0.0000139   0.0011721   0.0000000   0.0011325  -0.0007988  -0.0000000
   27   0.0000000   0.0000000  -0.0051171  -0.0000000   0.0000000   0.0001476
   28   0.0006097  -0.0006732  -0.0000000   0.0018607   0.0001947   0.0000000
   29   0.0011325  -0.0007988  -0.0000000   0.0000139   0.0011721  -0.0000000
   30  -0.0000000   0.0000000   0.0001476  -0.0000000  -0.0000000  -0.0051171
   31   0.0002151   0.0000819  -0.0000000   0.0014446  -0.0020326  -0.0000000
   32  -0.0015409   0.0000777   0.0000000   0.0019506   0.0016512  -0.0000000
   33  -0.0000000  -0.0000000   0.0001557  -0.0000000   0.0000000  -0.0038705
   34   0.0014446  -0.0020326   0.0000000   0.0002151   0.0000819   0.0000000
   35   0.0019506   0.0016512   0.0000000  -0.0015409   0.0000777   0.0000000
   36  -0.0000000   0.0000000  -0.0038705   0.0000000  -0.0000000   0.0001557
   37  -0.0004690   0.0000132   0.0000000  -0.0001646   0.0003522   0.0000000
   38  -0.0000490   0.0000310  -0.0000000  -0.0004242   0.0000072   0.0000000
   39  -0.0000000   0.0000000  -0.0002259   0.0000000  -0.0000000  -0.0000481
   40  -0.0001646   0.0003522   0.0000000  -0.0004690   0.0000132   0.0000000
   41  -0.0004242   0.0000072  -0.0000000  -0.0000490   0.0000310  -0.0000000
   42   0.0000000  -0.0000000  -0.0000481  -0.0000000   0.0000000  -0.0002259
   43   0.0000573  -0.0000132  -0.0000000  -0.0000616  -0.0000985   0.0000000
   44  -0.0000222  -0.0000053  -0.0000000  -0.0002990   0.0001654   0.0000000
   45   0.0000000   0.0000000   0.0000264   0.0000000   0.0000000   0.0001220
   46  -0.0000616  -0.0000985  -0.0000000   0.0000573  -0.0000132  -0.0000000
   47  -0.0002990   0.0001654   0.0000000  -0.0000222  -0.0000053   0.0000000
   48   0.0000000  -0.0000000   0.0001220  -0.0000000  -0.0000000   0.0000264
   49  -0.0000340  -0.0000243   0.0000000   0.0000858  -0.0000757  -0.0000000
   50  -0.0000250   0.0000017  -0.0000000  -0.0000257  -0.0000396   0.0000000
   51  -0.0000000  -0.0000000   0.0000134  -0.0000000  -0.0000000  -0.0000876
   52   0.0000858  -0.0000757  -0.0000000  -0.0000340  -0.0000243   0.0000000
   53  -0.0000257  -0.0000396   0.0000000  -0.0000250   0.0000017  -0.0000000
   54  -0.0000000   0.0000000  -0.0000876   0.0000000  -0.0000000   0.0000134
   55  -0.0000155   0.0000110  -0.0000000  -0.0000231   0.0000905  -0.0000000
   56   0.0000485   0.0000071   0.0000000  -0.0000002   0.0000371  -0.0000000
   57   0.0000000   0.0000000   0.0000046   0.0000000  -0.0000000   0.0003278
   58  -0.0000231   0.0000905  -0.0000000  -0.0000155   0.0000110   0.0000000
   59  -0.0000002   0.0000371   0.0000000   0.0000485   0.0000071   0.0000000
   60   0.0000000   0.0000000   0.0003278  -0.0000000   0.0000000   0.0000046
           25          26          27          28          29          30
    1  -0.0039958  -0.0018391   0.0000000   0.0125542   0.0224531  -0.0000000
    2  -0.0033881   0.0001234  -0.0000000  -0.0140510  -0.0154882   0.0000000
    3   0.0000000  -0.0000000   0.0088420  -0.0000000  -0.0000000   0.0028174
    4   0.0125542   0.0224531   0.0000000  -0.0039958  -0.0018391   0.0000000
    5  -0.0140510  -0.0154882   0.0000000  -0.0033881   0.0001234   0.0000000
    6  -0.0000000  -0.0000000   0.0028174  -0.0000000   0.0000000   0.0088420
    7  -0.0135564  -0.0114306  -0.0000000  -0.0015065  -0.0040766   0.0000000
    8   0.0281655   0.0091814   0.0000000  -0.0025386  -0.0037479  -0.0000000
    9  -0.0000000  -0.0000000   0.0036264  -0.0000000   0.0000000   0.0077202
   10  -0.0015065  -0.0040766  -0.0000000  -0.0135564  -0.0114306  -0.0000000
   11  -0.0025386  -0.0037479   0.0000000   0.0281655   0.0091814  -0.0000000
   12  -0.0000000   0.0000000   0.0077202   0.0000000   0.0000000   0.0036264
   13  -0.2034888   0.1695389   0.0000000   0.0000747  -0.0010465  -0.0000000
   14   0.1687744  -0.2730168  -0.0000000  -0.0009716   0.0004508   0.0000000
   15   0.0000000  -0.0000000  -0.0403809   0.0000000  -0.0000000  -0.0009294
   16   0.0000747  -0.0010465   0.0000000  -0.2034888   0.1695389   0.0000000
   17  -0.0009716   0.0004508   0.0000000   0.1687744  -0.2730168   0.0000000
   18   0.0000000  -0.0000000  -0.0009294   0.0000000  -0.0000000  -0.0403809
   19   0.0018607   0.0000139   0.0000000   0.0006097   0.0011325  -0.0000000
   20   0.0001947   0.0011721   0.0000000  -0.0006732  -0.0007988   0.0000000
   21  -0.0000000   0.0000000  -0.0051171  -0.0000000  -0.0000000   0.0001476
   22   0.0006097   0.0011325  -0.0000000   0.0018607   0.0000139  -0.0000000
   23  -0.0006732  -0.0007988   0.0000000   0.0001947   0.0011721  -0.0000000
   24   0.0000000  -0.0000000   0.0001476   0.0000000  -0.0000000  -0.0051171
   25   0.2103737  -0.1758999  -0.0000000  -0.0000198   0.0002373   0.0000000
   26  -0.1758999   0.2786679   0.0000000   0.0002373  -0.0000540  -0.0000000
   27  -0.0000000   0.0000000   0.0278746   0.0000000  -0.0000000  -0.0011710
   28  -0.0000198   0.0002373   0.0000000   0.2103737  -0.1758999  -0.0000000
   29   0.0002373  -0.0000540  -0.0000000  -0.1758999   0.2786679   0.0000000
   30   0.0000000  -0.0000000  -0.0011710  -0.0000000   0.0000000   0.0278746
   31  -0.0001383   0.0017653   0.0000000  -0.0003360  -0.0002394   0.0000000
   32   0.0010241   0.0017955  -0.0000000   0.0013790   0.0004796  -0.0000000
   33  -0.0000000  -0.0000000  -0.0039581  -0.0000000  -0.0000000   0.0000338
   34  -0.0003360  -0.0002394   0.0000000  -0.0001383   0.0017653   0.0000000
   35   0.0013790   0.0004796   0.0000000   0.0010241   0.0017955  -0.0000000
   36  -0.0000000   0.0000000   0.0000338  -0.0000000   0.0000000  -0.0039581
   37  -0.0000017   0.0000034   0.0000000  -0.0000020   0.0000156   0.0000000
   38   0.0000532   0.0001307   0.0000000   0.0000260   0.0000087  -0.0000000
   39  -0.0000000  -0.0000000  -0.0000682   0.0000000   0.0000000   0.0000158
   40  -0.0000020   0.0000156   0.0000000  -0.0000017   0.0000034  -0.0000000
   41   0.0000260   0.0000087  -0.0000000   0.0000532   0.0001307   0.0000000
   42  -0.0000000  -0.0000000   0.0000158  -0.0000000  -0.0000000  -0.0000682
   43  -0.0009112   0.0003870  -0.0000000  -0.0003466  -0.0001265  -0.0000000
   44  -0.0020231   0.0000239   0.0000000  -0.0003044  -0.0000811   0.0000000
   45   0.0000000   0.0000000   0.0002225   0.0000000  -0.0000000  -0.0001109
   46  -0.0003466  -0.0001265  -0.0000000  -0.0009112   0.0003870   0.0000000
   47  -0.0003044  -0.0000811   0.0000000  -0.0020231   0.0000239  -0.0000000
   48   0.0000000   0.0000000  -0.0001109  -0.0000000   0.0000000   0.0002225
   49  -0.0012466  -0.0008959   0.0000000  -0.0000011   0.0000058   0.0000000
   50  -0.0003666   0.0007831   0.0000000  -0.0000078  -0.0000017  -0.0000000
   51  -0.0000000   0.0000000   0.0003015  -0.0000000  -0.0000000  -0.0000039
   52  -0.0000011   0.0000058   0.0000000  -0.0012466  -0.0008959   0.0000000
   53  -0.0000078  -0.0000017   0.0000000  -0.0003666   0.0007831   0.0000000
   54   0.0000000   0.0000000  -0.0000039   0.0000000   0.0000000   0.0003015
   55   0.0001364   0.0000399  -0.0000000  -0.0000586  -0.0000379  -0.0000000
   56   0.0002555   0.0003358  -0.0000000   0.0001144   0.0000356  -0.0000000
   57   0.0000000  -0.0000000   0.0001304  -0.0000000   0.0000000   0.0000072
   58  -0.0000586  -0.0000379   0.0000000   0.0001364   0.0000399  -0.0000000
   59   0.0001144   0.0000356   0.0000000   0.0002555   0.0003358   0.0000000
   60  -0.0000000  -0.0000000   0.0000072   0.0000000  -0.0000000   0.0001304
           31          32          33          34          35          36
    1  -0.0060444   0.0015326   0.0000000  -0.2368400  -0.0567622  -0.0000000
    2  -0.0003636  -0.0002100  -0.0000000  -0.0269582  -0.1240901  -0.0000000
    3  -0.0000000  -0.0000000  -0.0009800  -0.0000000  -0.0000000  -0.0634559
    4  -0.2368400  -0.0567622   0.0000000  -0.0060444   0.0015326  -0.0000000
    5  -0.0269582  -0.1240901  -0.0000000  -0.0003636  -0.0002100  -0.0000000
    6  -0.0000000  -0.0000000  -0.0634559   0.0000000  -0.0000000  -0.0009800
    7   0.0101367  -0.0007783  -0.0000000  -0.0445329   0.0318614   0.0000000
    8  -0.0016214  -0.0064261  -0.0000000   0.0063238   0.0066474  -0.0000000
    9   0.0000000  -0.0000000   0.0068896  -0.0000000   0.0000000   0.0039577
   10  -0.0445329   0.0318614  -0.0000000   0.0101367  -0.0007783  -0.0000000
   11   0.0063238   0.0066474  -0.0000000  -0.0016214  -0.0064261   0.0000000
   12   0.0000000  -0.0000000   0.0039577  -0.0000000   0.0000000   0.0068896
   13  -0.0248883  -0.0335053   0.0000000   0.0068201   0.0009926   0.0000000
   14  -0.0213570   0.0010415   0.0000000   0.0063051  -0.0049189  -0.0000000
   15   0.0000000   0.0000000   0.0027814  -0.0000000  -0.0000000   0.0073996
   16   0.0068201   0.0009926   0.0000000  -0.0248883  -0.0335053   0.0000000
   17   0.0063051  -0.0049189   0.0000000  -0.0213570   0.0010415   0.0000000
   18   0.0000000   0.0000000   0.0073996  -0.0000000  -0.0000000   0.0027814
   19   0.0002151  -0.0015409  -0.0000000   0.0014446   0.0019506  -0.0000000
   20   0.0000819   0.0000777  -0.0000000  -0.0020326   0.0016512   0.0000000
   21  -0.0000000   0.0000000   0.0001557   0.0000000   0.0000000  -0.0038705
   22   0.0014446   0.0019506  -0.0000000   0.0002151  -0.0015409   0.0000000
   23  -0.0020326   0.0016512   0.0000000   0.0000819   0.0000777  -0.0000000
   24  -0.0000000  -0.0000000  -0.0038705   0.0000000   0.0000000   0.0001557
   25  -0.0001383   0.0010241  -0.0000000  -0.0003360   0.0013790  -0.0000000
   26   0.0017653   0.0017955  -0.0000000  -0.0002394   0.0004796   0.0000000
   27   0.0000000  -0.0000000  -0.0039581   0.0000000   0.0000000   0.0000338
   28  -0.0003360   0.0013790  -0.0000000  -0.0001383   0.0010241  -0.0000000
   29  -0.0002394   0.0004796  -0.0000000   0.0017653   0.0017955   0.0000000
   30   0.0000000  -0.0000000   0.0000338   0.0000000  -0.0000000  -0.0039581
   31   0.7723590  -0.1431562  -0.0000000   0.0032882  -0.0008981   0.0000000
   32  -0.1431562   0.8789689   0.0000000  -0.0008981  -0.0001731   0.0000000
   33  -0.0000000   0.0000000   0.1386614   0.0000000  -0.0000000  -0.0009893
   34   0.0032882  -0.0008981   0.0000000   0.7723590  -0.1431562   0.0000000
   35  -0.0008981  -0.0001731  -0.0000000  -0.1431562   0.8789689  -0.0000000
   36   0.0000000   0.0000000  -0.0009893   0.0000000  -0.0000000   0.1386614
   37  -0.0812416  -0.0751652   0.0000000   0.0000294   0.0001405  -0.0000000
   38  -0.0725546  -0.3833960   0.0000000   0.0000073   0.0000432   0.0000000
   39  -0.0000000   0.0000000  -0.0445852  -0.0000000  -0.0000000  -0.0000036
   40   0.0000294   0.0001405   0.0000000  -0.0812416  -0.0751652  -0.0000000
   41   0.0000073   0.0000432  -0.0000000  -0.0725546  -0.3833960   0.0000000
   42   0.0000000  -0.0000000  -0.0000036  -0.0000000   0.0000000  -0.0445852
   43  -0.3947799   0.2551415  -0.0000000  -0.0010185   0.0004640  -0.0000000
   44   0.2328544  -0.3678487  -0.0000000   0.0011925   0.0000201  -0.0000000
   45   0.0000000  -0.0000000  -0.0526226  -0.0000000  -0.0000000   0.0000909
   46  -0.0010185   0.0004640   0.0000000  -0.3947799   0.2551415  -0.0000000
   47   0.0011925   0.0000201  -0.0000000   0.2328544  -0.3678487  -0.0000000
   48   0.0000000   0.0000000   0.0000909  -0.0000000   0.0000000  -0.0526226
   49   0.0114103   0.0299867  -0.0000000   0.0000139  -0.0000292  -0.0000000
   50  -0.0078888  -0.0137325   0.0000000   0.0000801   0.0001859  -0.0000000
   51  -0.0000000  -0.0000000   0.0048404   0.0000000   0.0000000   0.0000606
   52   0.0000139  -0.0000292  -0.0000000   0.0114103   0.0299867   0.0000000
   53   0.0000801   0.0001859   0.0000000  -0.0078888  -0.0137325   0.0000000
   54  -0.0000000  -0.0000000   0.0000606   0.0000000  -0.0000000   0.0048404
   55  -0.0158424  -0.0125364   0.0000000  -0.0000550  -0.0001011   0.0000000
   56   0.0285099   0.0099468  -0.0000000  -0.0000504  -0.0000626   0.0000000
   57   0.0000000   0.0000000   0.0056019  -0.0000000   0.0000000  -0.0000078
   58  -0.0000550  -0.0001011  -0.0000000  -0.0158424  -0.0125364  -0.0000000
   59  -0.0000504  -0.0000626   0.0000000   0.0285099   0.0099468   0.0000000
   60  -0.0000000  -0.0000000  -0.0000078  -0.0000000   0.0000000   0.0056019
           37          38          39          40          41          42
    1   0.0001595   0.0000577   0.0000000  -0.0067989   0.0036504   0.0000000
    2   0.0000761   0.0001791  -0.0000000  -0.0320353  -0.0026692   0.0000000
    3   0.0000000   0.0000000   0.0001011   0.0000000   0.0000000   0.0023691
    4  -0.0067989   0.0036504  -0.0000000   0.0001595   0.0000577  -0.0000000
    5  -0.0320353  -0.0026692  -0.0000000   0.0000761   0.0001791   0.0000000
    6   0.0000000   0.0000000   0.0023691  -0.0000000   0.0000000   0.0001011
    7   0.0002736   0.0001675  -0.0000000   0.0017309   0.0024253  -0.0000000
    8  -0.0017055  -0.0001677  -0.0000000  -0.0022188   0.0015029   0.0000000
    9  -0.0000000  -0.0000000   0.0000033   0.0000000   0.0000000  -0.0008605
   10   0.0017309   0.0024253   0.0000000   0.0002736   0.0001675   0.0000000
   11  -0.0022188   0.0015029   0.0000000  -0.0017055  -0.0001677  -0.0000000
   12  -0.0000000  -0.0000000  -0.0008605   0.0000000   0.0000000   0.0000033
   13  -0.0053324   0.0000787   0.0000000   0.0001609  -0.0000324   0.0000000
   14   0.0017885   0.0007048   0.0000000   0.0001237  -0.0001172   0.0000000
   15  -0.0000000   0.0000000   0.0024439  -0.0000000   0.0000000  -0.0000269
   16   0.0001609  -0.0000324  -0.0000000  -0.0053324   0.0000787  -0.0000000
   17   0.0001237  -0.0001172  -0.0000000   0.0017885   0.0007048  -0.0000000
   18  -0.0000000  -0.0000000  -0.0000269  -0.0000000  -0.0000000   0.0024439
   19  -0.0004690  -0.0000490  -0.0000000  -0.0001646  -0.0004242   0.0000000
   20   0.0000132   0.0000310   0.0000000   0.0003522   0.0000072  -0.0000000
   21   0.0000000  -0.0000000  -0.0002259   0.0000000  -0.0000000  -0.0000481
   22  -0.0001646  -0.0004242   0.0000000  -0.0004690  -0.0000490  -0.0000000
   23   0.0003522   0.0000072  -0.0000000   0.0000132   0.0000310   0.0000000
   24   0.0000000   0.0000000  -0.0000481   0.0000000  -0.0000000  -0.0002259
   25  -0.0000017   0.0000532  -0.0000000  -0.0000020   0.0000260  -0.0000000
   26   0.0000034   0.0001307  -0.0000000   0.0000156   0.0000087  -0.0000000
   27   0.0000000   0.0000000  -0.0000682   0.0000000  -0.0000000   0.0000158
   28  -0.0000020   0.0000260   0.0000000  -0.0000017   0.0000532  -0.0000000
   29   0.0000156   0.0000087   0.0000000   0.0000034   0.0001307  -0.0000000
   30   0.0000000  -0.0000000   0.0000158  -0.0000000   0.0000000  -0.0000682
   31  -0.0812416  -0.0725546  -0.0000000   0.0000294   0.0000073   0.0000000
   32  -0.0751652  -0.3833960   0.0000000   0.0001405   0.0000432  -0.0000000
   33   0.0000000   0.0000000  -0.0445852   0.0000000  -0.0000000  -0.0000036
   34   0.0000294   0.0000073  -0.0000000  -0.0812416  -0.0725546  -0.0000000
   35   0.0001405   0.0000432  -0.0000000  -0.0751652  -0.3833960   0.0000000
   36  -0.0000000   0.0000000  -0.0000036  -0.0000000   0.0000000  -0.0445852
   37   0.0856688   0.0741448   0.0000000  -0.0000003   0.0000005  -0.0000000
   38   0.0741448   0.3980581  -0.0000000   0.0000005  -0.0000074  -0.0000000
   39   0.0000000  -0.0000000   0.0303468  -0.0000000  -0.0000000  -0.0000004
   40  -0.0000003   0.0000005  -0.0000000   0.0856688   0.0741448   0.0000000
   41   0.0000005  -0.0000074  -0.0000000   0.0741448   0.3980581  -0.0000000
   42  -0.0000000  -0.0000000  -0.0000004   0.0000000  -0.0000000   0.0303468
   43   0.0081711  -0.0095217   0.0000000  -0.0000647  -0.0000187  -0.0000000
   44   0.0322700  -0.0156330  -0.0000000  -0.0000298  -0.0000130   0.0000000
   45  -0.0000000   0.0000000   0.0057363   0.0000000   0.0000000  -0.0000043
   46  -0.0000647  -0.0000187   0.0000000   0.0081711  -0.0095217   0.0000000
   47  -0.0000298  -0.0000130   0.0000000   0.0322700  -0.0156330   0.0000000
   48  -0.0000000  -0.0000000  -0.0000043  -0.0000000   0.0000000   0.0057363
   49  -0.0037637   0.0021269   0.0000000  -0.0000045   0.0000004   0.0000000
   50   0.0022428  -0.0005705   0.0000000  -0.0000249  -0.0000081   0.0000000
   51   0.0000000  -0.0000000   0.0140561  -0.0000000  -0.0000000   0.0000029
   52  -0.0000045   0.0000004   0.0000000  -0.0037637   0.0021269  -0.0000000
   53  -0.0000249  -0.0000081   0.0000000   0.0022428  -0.0005705  -0.0000000
   54   0.0000000   0.0000000   0.0000029   0.0000000   0.0000000   0.0140561
   55   0.0016375  -0.0001406   0.0000000   0.0000116   0.0000023  -0.0000000
   56  -0.0000117   0.0019109   0.0000000   0.0000199   0.0000054  -0.0000000
   57  -0.0000000   0.0000000  -0.0092546  -0.0000000   0.0000000   0.0000027
   58   0.0000116   0.0000023  -0.0000000   0.0016375  -0.0001406  -0.0000000
   59   0.0000199   0.0000054  -0.0000000  -0.0000117   0.0019109  -0.0000000
   60   0.0000000   0.0000000   0.0000027   0.0000000  -0.0000000  -0.0092546
           43          44          45          46          47          48
    1   0.0018264  -0.0019377   0.0000000  -0.0483552   0.0127925   0.0000000
    2   0.0009384   0.0000783   0.0000000   0.0211803   0.0175110  -0.0000000
    3   0.0000000   0.0000000  -0.0000411  -0.0000000   0.0000000   0.0055041
    4  -0.0483552   0.0127925  -0.0000000   0.0018264  -0.0019377  -0.0000000
    5   0.0211803   0.0175110  -0.0000000   0.0009384   0.0000783  -0.0000000
    6  -0.0000000   0.0000000   0.0055041  -0.0000000   0.0000000  -0.0000411
    7  -0.0017202   0.0029601   0.0000000   0.0029531  -0.0071087  -0.0000000
    8   0.0014403  -0.0006043  -0.0000000  -0.0070420   0.0009724   0.0000000
    9  -0.0000000  -0.0000000  -0.0004599  -0.0000000  -0.0000000   0.0014414
   10   0.0029531  -0.0071087   0.0000000  -0.0017202   0.0029601   0.0000000
   11  -0.0070420   0.0009724  -0.0000000   0.0014403  -0.0006043   0.0000000
   12   0.0000000  -0.0000000   0.0014414   0.0000000   0.0000000  -0.0004599
   13   0.0038966  -0.0051286   0.0000000  -0.0032004   0.0014678   0.0000000
   14   0.0063741  -0.0050551   0.0000000  -0.0009036   0.0019784  -0.0000000
   15  -0.0000000  -0.0000000   0.0004419   0.0000000   0.0000000  -0.0001055
   16  -0.0032004   0.0014678  -0.0000000   0.0038966  -0.0051286  -0.0000000
   17  -0.0009036   0.0019784   0.0000000   0.0063741  -0.0050551  -0.0000000
   18  -0.0000000  -0.0000000  -0.0001055   0.0000000  -0.0000000   0.0004419
   19   0.0000573  -0.0000222   0.0000000  -0.0000616  -0.0002990   0.0000000
   20  -0.0000132  -0.0000053   0.0000000  -0.0000985   0.0001654  -0.0000000
   21  -0.0000000  -0.0000000   0.0000264  -0.0000000   0.0000000   0.0001220
   22  -0.0000616  -0.0002990   0.0000000   0.0000573  -0.0000222  -0.0000000
   23  -0.0000985   0.0001654   0.0000000  -0.0000132  -0.0000053  -0.0000000
   24   0.0000000   0.0000000   0.0001220  -0.0000000   0.0000000   0.0000264
   25  -0.0009112  -0.0020231   0.0000000  -0.0003466  -0.0003044   0.0000000
   26   0.0003870   0.0000239   0.0000000  -0.0001265  -0.0000811   0.0000000
   27  -0.0000000   0.0000000   0.0002225  -0.0000000   0.0000000  -0.0001109
   28  -0.0003466  -0.0003044   0.0000000  -0.0009112  -0.0020231  -0.0000000
   29  -0.0001265  -0.0000811  -0.0000000   0.0003870   0.0000239   0.0000000
   30  -0.0000000   0.0000000  -0.0001109   0.0000000  -0.0000000   0.0002225
   31  -0.3947799   0.2328544   0.0000000  -0.0010185   0.0011925   0.0000000
   32   0.2551415  -0.3678487  -0.0000000   0.0004640   0.0000201   0.0000000
   33  -0.0000000  -0.0000000  -0.0526226   0.0000000  -0.0000000   0.0000909
   34  -0.0010185   0.0011925  -0.0000000  -0.3947799   0.2328544  -0.0000000
   35   0.0004640   0.0000201  -0.0000000   0.2551415  -0.3678487   0.0000000
   36  -0.0000000  -0.0000000   0.0000909  -0.0000000  -0.0000000  -0.0526226
   37   0.0081711   0.0322700  -0.0000000  -0.0000647  -0.0000298  -0.0000000
   38  -0.0095217  -0.0156330   0.0000000  -0.0000187  -0.0000130  -0.0000000
   39   0.0000000  -0.0000000   0.0057363   0.0000000   0.0000000  -0.0000043
   40  -0.0000647  -0.0000298   0.0000000   0.0081711   0.0322700  -0.0000000
   41  -0.0000187  -0.0000130   0.0000000  -0.0095217  -0.0156330   0.0000000
   42  -0.0000000   0.0000000  -0.0000043   0.0000000   0.0000000   0.0057363
   43   0.8950389  -0.1062386   0.0000000   0.0002132  -0.0004894  -0.0000000
   44  -0.1062386   0.8713956   0.0000000  -0.0004894   0.0002625  -0.0000000
   45   0.0000000   0.0000000   0.1141713   0.0000000   0.0000000   0.0000110
   46   0.0002132  -0.0004894   0.0000000   0.8950389  -0.1062386   0.0000000
   47  -0.0004894   0.0002625   0.0000000  -0.1062386   0.8713956   0.0000000
   48  -0.0000000  -0.0000000   0.0000110   0.0000000   0.0000000   0.1141713
   49  -0.0806229  -0.0600784   0.0000000   0.0000074  -0.0000000  -0.0000000
   50  -0.0582107  -0.4018532   0.0000000  -0.0001007  -0.0000708  -0.0000000
   51  -0.0000000   0.0000000  -0.0388641  -0.0000000  -0.0000000  -0.0000029
   52   0.0000074  -0.0000000   0.0000000  -0.0806229  -0.0600784   0.0000000
   53  -0.0001007  -0.0000708   0.0000000  -0.0582107  -0.4018532  -0.0000000
   54   0.0000000   0.0000000  -0.0000029  -0.0000000  -0.0000000  -0.0388641
   55  -0.3811289  -0.0999173  -0.0000000   0.0000463   0.0000401   0.0000000
   56  -0.1032093  -0.1012774  -0.0000000   0.0000474   0.0000343   0.0000000
   57   0.0000000  -0.0000000  -0.0355416   0.0000000  -0.0000000  -0.0000149
   58   0.0000463   0.0000401  -0.0000000  -0.3811289  -0.0999173   0.0000000
   59   0.0000474   0.0000343  -0.0000000  -0.1032093  -0.1012774  -0.0000000
   60   0.0000000   0.0000000  -0.0000149   0.0000000   0.0000000  -0.0355416
           49          50          51          52          53          54
    1  -0.0000444  -0.0001210  -0.0000000   0.0014486  -0.0014052  -0.0000000
    2  -0.0000033  -0.0000798  -0.0000000  -0.0014615   0.0006097   0.0000000
    3   0.0000000   0.0000000  -0.0000791   0.0000000   0.0000000  -0.0081816
    4   0.0014486  -0.0014052   0.0000000  -0.0000444  -0.0001210  -0.0000000
    5  -0.0014615   0.0006097   0.0000000  -0.0000033  -0.0000798   0.0000000
    6   0.0000000  -0.0000000  -0.0081816   0.0000000   0.0000000  -0.0000791
    7   0.0001686  -0.0000344   0.0000000   0.0000146  -0.0001469   0.0000000
    8  -0.0002484   0.0003905  -0.0000000  -0.0000549  -0.0001110   0.0000000
    9  -0.0000000   0.0000000   0.0001406   0.0000000  -0.0000000   0.0000350
   10   0.0000146  -0.0001469  -0.0000000   0.0001686  -0.0000344   0.0000000
   11  -0.0000549  -0.0001110   0.0000000  -0.0002484   0.0003905   0.0000000
   12  -0.0000000  -0.0000000   0.0000350   0.0000000  -0.0000000   0.0001406
   13  -0.0013737  -0.0010547  -0.0000000   0.0000522   0.0000330  -0.0000000
   14   0.0012701   0.0005197  -0.0000000  -0.0001311  -0.0001772  -0.0000000
   15  -0.0000000  -0.0000000   0.0001915   0.0000000  -0.0000000   0.0002641
   16   0.0000522   0.0000330   0.0000000  -0.0013737  -0.0010547   0.0000000
   17  -0.0001311  -0.0001772   0.0000000   0.0012701   0.0005197  -0.0000000
   18  -0.0000000   0.0000000   0.0002641  -0.0000000  -0.0000000   0.0001915
   19  -0.0000340  -0.0000250  -0.0000000   0.0000858  -0.0000257  -0.0000000
   20  -0.0000243   0.0000017  -0.0000000  -0.0000757  -0.0000396   0.0000000
   21   0.0000000  -0.0000000   0.0000134  -0.0000000   0.0000000  -0.0000876
   22   0.0000858  -0.0000257  -0.0000000  -0.0000340  -0.0000250   0.0000000
   23  -0.0000757  -0.0000396  -0.0000000  -0.0000243   0.0000017  -0.0000000
   24  -0.0000000   0.0000000  -0.0000876   0.0000000  -0.0000000   0.0000134
   25  -0.0012466  -0.0003666  -0.0000000  -0.0000011  -0.0000078   0.0000000
   26  -0.0008959   0.0007831   0.0000000   0.0000058  -0.0000017   0.0000000
   27   0.0000000   0.0000000   0.0003015   0.0000000   0.0000000  -0.0000039
   28  -0.0000011  -0.0000078  -0.0000000  -0.0012466  -0.0003666   0.0000000
   29   0.0000058  -0.0000017  -0.0000000  -0.0008959   0.0007831   0.0000000
   30   0.0000000  -0.0000000  -0.0000039   0.0000000   0.0000000   0.0003015
   31   0.0114103  -0.0078888  -0.0000000   0.0000139   0.0000801  -0.0000000
   32   0.0299867  -0.0137325  -0.0000000  -0.0000292   0.0001859  -0.0000000
   33  -0.0000000   0.0000000   0.0048404  -0.0000000   0.0000000   0.0000606
   34   0.0000139   0.0000801   0.0000000   0.0114103  -0.0078888   0.0000000
   35  -0.0000292   0.0001859   0.0000000   0.0299867  -0.0137325  -0.0000000
   36  -0.0000000  -0.0000000   0.0000606   0.0000000   0.0000000   0.0048404
   37  -0.0037637   0.0022428   0.0000000  -0.0000045  -0.0000249   0.0000000
   38   0.0021269  -0.0005705  -0.0000000   0.0000004  -0.0000081   0.0000000
   39   0.0000000   0.0000000   0.0140561   0.0000000   0.0000000   0.0000029
   40  -0.0000045  -0.0000249  -0.0000000  -0.0037637   0.0022428   0.0000000
   41   0.0000004  -0.0000081  -0.0000000   0.0021269  -0.0005705   0.0000000
   42   0.0000000   0.0000000   0.0000029  -0.0000000  -0.0000000   0.0140561
   43  -0.0806229  -0.0582107  -0.0000000   0.0000074  -0.0001007   0.0000000
   44  -0.0600784  -0.4018532   0.0000000  -0.0000000  -0.0000708   0.0000000
   45   0.0000000   0.0000000  -0.0388641   0.0000000   0.0000000  -0.0000029
   46   0.0000074  -0.0001007  -0.0000000  -0.0806229  -0.0582107  -0.0000000
   47  -0.0000000  -0.0000708  -0.0000000  -0.0600784  -0.4018532  -0.0000000
   48  -0.0000000  -0.0000000  -0.0000029   0.0000000  -0.0000000  -0.0388641
   49   0.0719474   0.0595003   0.0000000  -0.0000006  -0.0000030  -0.0000000
   50   0.0595003   0.4154241  -0.0000000  -0.0000030  -0.0000581   0.0000000
   51   0.0000000  -0.0000000   0.0250990  -0.0000000  -0.0000000   0.0000189
   52  -0.0000006  -0.0000030  -0.0000000   0.0719474   0.0595003   0.0000000
   53  -0.0000030  -0.0000581  -0.0000000   0.0595003   0.4154241   0.0000000
   54  -0.0000000   0.0000000   0.0000189   0.0000000   0.0000000   0.0250990
   55   0.0019377   0.0075272   0.0000000   0.0000052   0.0000319  -0.0000000
   56  -0.0298825  -0.0012444   0.0000000  -0.0000018   0.0000322  -0.0000000
   57   0.0000000  -0.0000000   0.0022159   0.0000000   0.0000000  -0.0000207
   58   0.0000052   0.0000319   0.0000000   0.0019377   0.0075272  -0.0000000
   59  -0.0000018   0.0000322   0.0000000  -0.0298825  -0.0012444   0.0000000
   60   0.0000000   0.0000000  -0.0000207  -0.0000000  -0.0000000   0.0022159
           55          56          57          58          59          60
    1   0.0001217  -0.0000632   0.0000000  -0.0000628   0.0012513  -0.0000000
    2   0.0001588   0.0000584   0.0000000   0.0027521  -0.0033567   0.0000000
    3  -0.0000000  -0.0000000   0.0001521   0.0000000   0.0000000   0.0129034
    4  -0.0000628   0.0012513  -0.0000000   0.0001217  -0.0000632   0.0000000
    5   0.0027521  -0.0033567  -0.0000000   0.0001588   0.0000584   0.0000000
    6  -0.0000000  -0.0000000   0.0129034  -0.0000000   0.0000000   0.0001521
    7   0.0000149  -0.0000121   0.0000000  -0.0003959   0.0009164  -0.0000000
    8  -0.0002311   0.0002104   0.0000000  -0.0005016   0.0007973  -0.0000000
    9   0.0000000   0.0000000  -0.0003251  -0.0000000   0.0000000   0.0000269
   10  -0.0003959   0.0009164   0.0000000   0.0000149  -0.0000121   0.0000000
   11  -0.0005016   0.0007973  -0.0000000  -0.0002311   0.0002104  -0.0000000
   12   0.0000000   0.0000000   0.0000269   0.0000000  -0.0000000  -0.0003251
   13   0.0004731  -0.0001496   0.0000000  -0.0002006   0.0000543  -0.0000000
   14   0.0002262  -0.0005546   0.0000000   0.0004229  -0.0002625   0.0000000
   15  -0.0000000   0.0000000  -0.0004385  -0.0000000  -0.0000000  -0.0008998
   16  -0.0002006   0.0000543  -0.0000000   0.0004731  -0.0001496  -0.0000000
   17   0.0004229  -0.0002625  -0.0000000   0.0002262  -0.0005546   0.0000000
   18   0.0000000   0.0000000  -0.0008998  -0.0000000  -0.0000000  -0.0004385
   19  -0.0000155   0.0000485   0.0000000  -0.0000231  -0.0000002   0.0000000
   20   0.0000110   0.0000071   0.0000000   0.0000905   0.0000371   0.0000000
   21  -0.0000000   0.0000000   0.0000046  -0.0000000   0.0000000   0.0003278
   22  -0.0000231  -0.0000002   0.0000000  -0.0000155   0.0000485  -0.0000000
   23   0.0000905   0.0000371  -0.0000000   0.0000110   0.0000071   0.0000000
   24  -0.0000000  -0.0000000   0.0003278   0.0000000   0.0000000   0.0000046
   25   0.0001364   0.0002555   0.0000000  -0.0000586   0.0001144  -0.0000000
   26   0.0000399   0.0003358  -0.0000000  -0.0000379   0.0000356  -0.0000000
   27  -0.0000000  -0.0000000   0.0001304   0.0000000   0.0000000   0.0000072
   28  -0.0000586   0.0001144  -0.0000000   0.0001364   0.0002555   0.0000000
   29  -0.0000379   0.0000356   0.0000000   0.0000399   0.0003358  -0.0000000
   30  -0.0000000  -0.0000000   0.0000072  -0.0000000   0.0000000   0.0001304
   31  -0.0158424   0.0285099   0.0000000  -0.0000550  -0.0000504  -0.0000000
   32  -0.0125364   0.0099468   0.0000000  -0.0001011  -0.0000626  -0.0000000
   33   0.0000000  -0.0000000   0.0056019  -0.0000000   0.0000000  -0.0000078
   34  -0.0000550  -0.0000504  -0.0000000  -0.0158424   0.0285099  -0.0000000
   35  -0.0001011  -0.0000626   0.0000000  -0.0125364   0.0099468   0.0000000
   36   0.0000000   0.0000000  -0.0000078  -0.0000000   0.0000000   0.0056019
   37   0.0016375  -0.0000117  -0.0000000   0.0000116   0.0000199   0.0000000
   38  -0.0001406   0.0019109   0.0000000   0.0000023   0.0000054   0.0000000
   39   0.0000000   0.0000000  -0.0092546  -0.0000000  -0.0000000   0.0000027
   40   0.0000116   0.0000199  -0.0000000   0.0016375  -0.0000117   0.0000000
   41   0.0000023   0.0000054   0.0000000  -0.0001406   0.0019109  -0.0000000
   42  -0.0000000  -0.0000000   0.0000027  -0.0000000  -0.0000000  -0.0092546
   43  -0.3811289  -0.1032093   0.0000000   0.0000463   0.0000474   0.0000000
   44  -0.0999173  -0.1012774  -0.0000000   0.0000401   0.0000343   0.0000000
   45  -0.0000000  -0.0000000  -0.0355416  -0.0000000  -0.0000000  -0.0000149
   46   0.0000463   0.0000474   0.0000000  -0.3811289  -0.1032093   0.0000000
   47   0.0000401   0.0000343  -0.0000000  -0.0999173  -0.1012774   0.0000000
   48   0.0000000   0.0000000  -0.0000149   0.0000000  -0.0000000  -0.0355416
   49   0.0019377  -0.0298825   0.0000000   0.0000052  -0.0000018   0.0000000
   50   0.0075272  -0.0012444  -0.0000000   0.0000319   0.0000322   0.0000000
   51   0.0000000   0.0000000   0.0022159   0.0000000   0.0000000  -0.0000207
   52   0.0000052  -0.0000018   0.0000000   0.0019377  -0.0298825  -0.0000000
   53   0.0000319   0.0000322   0.0000000   0.0075272  -0.0012444  -0.0000000
   54  -0.0000000  -0.0000000  -0.0000207  -0.0000000   0.0000000   0.0022159
   55   0.3934214   0.1021811  -0.0000000  -0.0000231  -0.0000179  -0.0000000
   56   0.1021811   0.0933606   0.0000000  -0.0000179  -0.0000139  -0.0000000
   57  -0.0000000   0.0000000   0.0251021   0.0000000  -0.0000000   0.0000279
   58  -0.0000231  -0.0000179   0.0000000   0.3934214   0.1021811  -0.0000000
   59  -0.0000179  -0.0000139  -0.0000000   0.1021811   0.0933606  -0.0000000
   60  -0.0000000  -0.0000000   0.0000279  -0.0000000  -0.0000000   0.0251021
 Gradient time:  CPU 117.37 s  wall 117.65 s
 **********************************************************************
 **                                                                  **
 **                       VIBRATIONAL ANALYSIS                       **
 **                       --------------------                       **
 **                                                                  **
 **        VIBRATIONAL FREQUENCIES (CM**-1) AND NORMAL MODES         **
 **     FORCE CONSTANTS (mDYN/ANGSTROM) AND REDUCED MASSES (AMU)     **
 **                  INFRARED INTENSITIES (KM/MOL)                   **
 **                                                                  **
 **********************************************************************
 

 Mode:                 1                      2                      3
 Frequency:        47.24                  80.80                 152.36
 Force Cnst:      0.0042                 0.0096                 0.0292
 Red. Mass:       3.1573                 2.4971                 2.1376
 IR Active:          YES                    NO                     YES
 IR Intens:        0.031                  0.000                  0.343
 Raman Active:       NO                     YES                    NO 
               X      Y      Z        X      Y      Z        X      Y      Z
 C          0.000  0.000 -0.079    0.000  0.000 -0.086    0.000  0.000 -0.031
 C          0.000  0.000 -0.079    0.000  0.000  0.086    0.000  0.000 -0.031
 C          0.000  0.000 -0.101    0.000  0.000  0.042    0.000  0.000 -0.084
 C          0.000  0.000 -0.101    0.000  0.000 -0.042    0.000  0.000 -0.084
 C          0.000  0.000 -0.094    0.000  0.000  0.133    0.000  0.000 -0.097
 C          0.000  0.000 -0.094    0.000  0.000 -0.133    0.000  0.000 -0.097
 H          0.000  0.000 -0.109    0.000  0.000  0.083    0.000  0.000 -0.066
 H          0.000  0.000 -0.109    0.000  0.000 -0.083    0.000  0.000 -0.066
 H          0.000  0.000 -0.100    0.000  0.000  0.248    0.000  0.000 -0.084
 H          0.000  0.000 -0.100    0.000  0.000 -0.248    0.000  0.000 -0.084
 C          0.000  0.000 -0.025    0.000  0.000  0.139    0.000  0.000  0.184
 C          0.000  0.000 -0.025    0.000  0.000 -0.139    0.000  0.000  0.184
 H          0.000  0.000 -0.216    0.000  0.000  0.394    0.000  0.000  0.519
 H          0.000  0.000 -0.216    0.000  0.000 -0.394    0.000  0.000  0.519
 C          0.000  0.000  0.268    0.000  0.000 -0.147    0.000  0.000  0.008
 C          0.000  0.000  0.268    0.000  0.000  0.147    0.000  0.000  0.008
 H          0.000  0.000  0.493    0.000  0.000 -0.446    0.000  0.000 -0.352
 H          0.000  0.000  0.493    0.000  0.000  0.446    0.000  0.000 -0.352
 H          0.000  0.000  0.301    0.000  0.000 -0.101    0.000  0.000  0.210
 H          0.000  0.000  0.301    0.000  0.000  0.101    0.000  0.000  0.210
 TransDip   0.000  0.000  0.006    0.000  0.000  0.000    0.000  0.000  0.019

 Mode:                 4                      5                      6
 Frequency:       178.92                 262.67                 301.86
 Force Cnst:      0.0643                 0.1318                 0.1272
 Red. Mass:       3.4093                 3.2431                 2.3702
 IR Active:          YES                    NO                     NO 
 IR Intens:        0.257                  0.000                  0.000
 Raman Active:       NO                     YES                    YES
               X      Y      Z        X      Y      Z        X      Y      Z
 C         -0.019 -0.105  0.000   -0.046  0.120  0.000    0.000  0.000  0.183
 C         -0.019 -0.105  0.000    0.046 -0.120  0.000    0.000  0.000 -0.183
 C         -0.025 -0.115  0.000   -0.100  0.064  0.000    0.000  0.000  0.121
 C         -0.025 -0.115  0.000    0.100 -0.064  0.000    0.000  0.000 -0.121
 C         -0.011 -0.113  0.000   -0.067 -0.080  0.000    0.000  0.000 -0.099
 C         -0.011 -0.113  0.000    0.067  0.080  0.000    0.000  0.000  0.099
 H         -0.025 -0.116  0.000   -0.186  0.095  0.000    0.000  0.000  0.183
 H         -0.025 -0.116  0.000    0.186 -0.095  0.000    0.000  0.000 -0.183
 H         -0.007 -0.112  0.000   -0.148 -0.151  0.000    0.000  0.000 -0.128
 H         -0.007 -0.112  0.000    0.148  0.151  0.000    0.000  0.000  0.128
 C         -0.053  0.057  0.000    0.045 -0.054  0.000    0.000  0.000  0.056
 C         -0.053  0.057  0.000   -0.045  0.054  0.000    0.000  0.000 -0.056
 H         -0.220  0.095  0.000   -0.086 -0.023  0.000    0.000  0.000  0.398
 H         -0.220  0.095  0.000    0.086  0.023  0.000    0.000  0.000 -0.398
 C          0.101  0.234  0.000    0.202  0.120  0.000    0.000  0.000  0.032
 C          0.101  0.234  0.000   -0.202 -0.120  0.000    0.000  0.000 -0.032
 H          0.289  0.203  0.000    0.408  0.085  0.000    0.000  0.000 -0.320
 H          0.289  0.203  0.000   -0.408 -0.085  0.000    0.000  0.000  0.320
 H          0.043  0.424  0.000    0.139  0.330  0.000    0.000  0.000  0.357
 H          0.043  0.424  0.000   -0.139 -0.330  0.000    0.000  0.000 -0.357
 TransDip  -0.015  0.006  0.000    0.000  0.000  0.000    0.000  0.000  0.000

 Mode:                 7                      8                      9
 Frequency:       408.38                 425.37                 470.34
 Force Cnst:      0.4697                 0.3254                 0.2934
 Red. Mass:       4.7801                 3.0526                 2.2512
 IR Active:          NO                     YES                    YES
 IR Intens:        0.000                  0.086                  5.788
 Raman Active:       YES                    NO                     NO 
               X      Y      Z        X      Y      Z        X      Y      Z
 C         -0.131 -0.139  0.000    0.000  0.000 -0.017    0.000  0.000  0.199
 C          0.131  0.139  0.000    0.000  0.000 -0.017    0.000  0.000  0.199
 C          0.054 -0.007  0.000    0.000  0.000 -0.212    0.000  0.000 -0.091
 C         -0.054  0.007  0.000    0.000  0.000 -0.212    0.000  0.000 -0.091
 C          0.064  0.155  0.000    0.000  0.000  0.218    0.000  0.000 -0.062
 C         -0.064 -0.155  0.000    0.000  0.000  0.218    0.000  0.000 -0.062
 H          0.253 -0.083  0.000    0.000  0.000 -0.408    0.000  0.000 -0.336
 H         -0.253  0.083  0.000    0.000  0.000 -0.408    0.000  0.000 -0.336
 H          0.075  0.163  0.000    0.000  0.000  0.486    0.000  0.000 -0.289
 H         -0.075 -0.163  0.000    0.000  0.000  0.486    0.000  0.000 -0.289
 C          0.240 -0.005  0.000    0.000  0.000  0.005    0.000  0.000  0.063
 C         -0.240  0.005  0.000    0.000  0.000  0.005    0.000  0.000  0.063
 H          0.356 -0.028  0.000    0.000  0.000  0.022    0.000  0.000 -0.206
 H         -0.356  0.028  0.000    0.000  0.000  0.022    0.000  0.000 -0.206
 C          0.197 -0.086  0.000    0.000  0.000 -0.002    0.000  0.000 -0.028
 C         -0.197  0.086  0.000    0.000  0.000 -0.002    0.000  0.000 -0.028
 H          0.147 -0.080  0.000    0.000  0.000 -0.048    0.000  0.000  0.245
 H         -0.147  0.080  0.000    0.000  0.000 -0.048    0.000  0.000  0.245
 H          0.219 -0.147  0.000    0.000  0.000  0.040    0.000  0.000 -0.380
 H         -0.219  0.147  0.000    0.000  0.000  0.040    0.000  0.000 -0.380
 TransDip   0.000  0.000  0.000    0.000  0.000  0.009    0.000  0.000 -0.077

 Mode:                10                     11                     12
 Frequency:       485.60                 578.67                 659.05
 Force Cnst:      0.4488                 0.5586                 0.5292
 Red. Mass:       3.2304                 2.8314                 2.0678
 IR Active:          YES                    NO                     NO 
 IR Intens:        1.930                  0.000                  0.000
 Raman Active:       NO                     YES                    YES
               X      Y      Z        X      Y      Z        X      Y      Z
 C         -0.060  0.041  0.000   -0.117  0.063  0.000    0.000  0.000  0.040
 C         -0.060  0.041  0.000    0.117 -0.063  0.000    0.000  0.000 -0.040
 C         -0.086  0.074  0.000   -0.063  0.134  0.000    0.000  0.000 -0.118
 C         -0.086  0.074  0.000    0.063 -0.134  0.000    0.000  0.000  0.118
 C         -0.103  0.076  0.000   -0.019 -0.024  0.000    0.000  0.000  0.114
 C         -0.103  0.076  0.000    0.019  0.024  0.000    0.000  0.000 -0.114
 H         -0.098  0.081  0.000   -0.085  0.143  0.000    0.000  0.000 -0.160
 H         -0.098  0.081  0.000    0.085 -0.143  0.000    0.000  0.000  0.160
 H         -0.102  0.078  0.000   -0.181 -0.159  0.000    0.000  0.000  0.192
 H         -0.102  0.078  0.000    0.181  0.159  0.000    0.000  0.000 -0.192
 C          0.026 -0.174  0.000    0.094  0.172  0.000    0.000  0.000 -0.138
 C          0.026 -0.174  0.000   -0.094 -0.172  0.000    0.000  0.000  0.138
 H          0.053 -0.177  0.000    0.051  0.182  0.000    0.000  0.000  0.188
 H          0.053 -0.177  0.000   -0.051 -0.182  0.000    0.000  0.000 -0.188
 C          0.186 -0.030  0.000   -0.059  0.020  0.000    0.000  0.000  0.023
 C          0.186 -0.030  0.000    0.059 -0.020  0.000    0.000  0.000 -0.023
 H          0.496 -0.084  0.000   -0.426  0.081  0.000    0.000  0.000 -0.301
 H          0.496 -0.084  0.000    0.426 -0.081  0.000    0.000  0.000  0.301
 H          0.100  0.263  0.000    0.045 -0.325  0.000    0.000  0.000  0.513
 H          0.100  0.263  0.000   -0.045  0.325  0.000    0.000  0.000 -0.513
 TransDip  -0.044  0.004  0.000    0.000  0.000  0.000    0.000  0.000  0.000

 Mode:                13                     14                     15
 Frequency:       672.02                 709.27                 735.87
 Force Cnst:      1.8326                 0.4388                 1.0163
 Red. Mass:       6.8872                 1.4804                 3.1854
 IR Active:          NO                     YES                    YES
 IR Intens:        0.000                  0.437                  4.355
 Raman Active:       YES                    NO                     NO 
               X      Y      Z        X      Y      Z        X      Y      Z
 C         -0.002 -0.105  0.000    0.000  0.000  0.084    0.018  0.003  0.000
 C          0.002  0.105  0.000    0.000  0.000  0.084    0.018  0.003  0.000
 C         -0.258 -0.232  0.000    0.000  0.000  0.016   -0.134 -0.068  0.000
 C          0.258  0.232  0.000    0.000  0.000  0.016   -0.134 -0.068  0.000
 C         -0.324  0.160  0.000    0.000  0.000  0.020   -0.131 -0.026  0.000
 C          0.324 -0.160  0.000    0.000  0.000  0.020   -0.131 -0.026  0.000
 H         -0.149 -0.273  0.000    0.000  0.000 -0.309   -0.222 -0.035  0.000
 H          0.149  0.273  0.000    0.000  0.000 -0.309   -0.222 -0.035  0.000
 H         -0.255  0.218  0.000    0.000  0.000 -0.305   -0.200 -0.087  0.000
 H          0.255 -0.218  0.000    0.000  0.000 -0.305   -0.200 -0.087  0.000
 C          0.012  0.058  0.000    0.000  0.000 -0.116    0.183  0.129  0.000
 C         -0.012 -0.058  0.000    0.000  0.000 -0.116    0.183  0.129  0.000
 H          0.002  0.060  0.000    0.000  0.000  0.182    0.188  0.136  0.000
 H         -0.002 -0.060  0.000    0.000  0.000  0.182    0.188  0.136  0.000
 C         -0.024  0.040  0.000    0.000  0.000  0.017    0.089 -0.012  0.000
 C          0.024 -0.040  0.000    0.000  0.000  0.017    0.089 -0.012  0.000
 H         -0.123  0.056  0.000    0.000  0.000 -0.257   -0.264  0.042  0.000
 H          0.123 -0.056  0.000    0.000  0.000 -0.257   -0.264  0.042  0.000
 H         -0.001 -0.041  0.000    0.000  0.000  0.437    0.201 -0.370  0.000
 H          0.001  0.041  0.000    0.000  0.000  0.437    0.201 -0.370  0.000
 TransDip   0.000  0.000  0.000    0.000  0.000 -0.021    0.067 -0.005  0.000

 Mode:                16                     17                     18
 Frequency:       811.22                 861.59                 897.07
 Force Cnst:      1.2797                 1.9550                 0.5954
 Red. Mass:       3.3004                 4.4698                 1.2557
 IR Active:          NO                     NO                     NO 
 IR Intens:        0.000                  0.000                  0.000
 Raman Active:       YES                    YES                    YES
               X      Y      Z        X      Y      Z        X      Y      Z
 C          0.000  0.000 -0.259   -0.076 -0.016  0.000    0.000  0.000 -0.002
 C          0.000  0.000  0.259    0.076  0.016  0.000    0.000  0.000  0.002
 C          0.000  0.000  0.106    0.004  0.246  0.000    0.000  0.000 -0.071
 C          0.000  0.000 -0.106   -0.004 -0.246  0.000    0.000  0.000  0.071
 C          0.000  0.000 -0.104   -0.073  0.249  0.000    0.000  0.000 -0.079
 C          0.000  0.000  0.104    0.073 -0.249  0.000    0.000  0.000  0.079
 H          0.000  0.000  0.279    0.204  0.188  0.000    0.000  0.000  0.485
 H          0.000  0.000 -0.279   -0.204 -0.188  0.000    0.000  0.000 -0.485
 H          0.000  0.000 -0.278   -0.213  0.154  0.000    0.000  0.000  0.503
 H          0.000  0.000  0.278    0.213 -0.154  0.000    0.000  0.000 -0.503
 C          0.000  0.000 -0.123   -0.109 -0.078  0.000    0.000  0.000 -0.001
 C          0.000  0.000  0.123    0.109  0.078  0.000    0.000  0.000  0.001
 H          0.000  0.000  0.161   -0.114 -0.085  0.000    0.000  0.000 -0.001
 H          0.000  0.000 -0.161    0.114  0.085  0.000    0.000  0.000  0.001
 C          0.000  0.000  0.012   -0.075  0.002  0.000    0.000  0.000  0.001
 C          0.000  0.000 -0.012    0.075 -0.002  0.000    0.000  0.000 -0.001
 H          0.000  0.000 -0.214    0.209 -0.043  0.000    0.000  0.000  0.013
 H          0.000  0.000  0.214   -0.209  0.043  0.000    0.000  0.000 -0.013
 H          0.000  0.000  0.411   -0.174  0.317  0.000    0.000  0.000 -0.018
 H          0.000  0.000 -0.411    0.174 -0.317  0.000    0.000  0.000  0.018
 TransDip   0.000  0.000  0.000    0.000  0.000  0.000    0.000  0.000  0.000

 Mode:                19                     20                     21
 Frequency:       898.60                 981.66                 981.78
 Force Cnst:      0.8041                 0.7737                 0.7755
 Red. Mass:       1.6901                 1.3627                 1.3656
 IR Active:          YES                    NO                     YES
 IR Intens:       26.389                  0.000                 36.554
 Raman Active:       NO                     YES                    NO 
               X      Y      Z        X      Y      Z        X      Y      Z
 C          0.000  0.000  0.124    0.000  0.000  0.004    0.000  0.000 -0.005
 C          0.000  0.000  0.124    0.000  0.000 -0.004    0.000  0.000 -0.005
 C          0.000  0.000 -0.073    0.000  0.000  0.001    0.000  0.000  0.000
 C          0.000  0.000 -0.073    0.000  0.000 -0.001    0.000  0.000  0.000
 C          0.000  0.000 -0.081    0.000  0.000 -0.001    0.000  0.000  0.004
 C          0.000  0.000 -0.081    0.000  0.000  0.001    0.000  0.000  0.004
 H          0.000  0.000  0.457    0.000  0.000 -0.004    0.000  0.000  0.005
 H          0.000  0.000  0.457    0.000  0.000  0.004    0.000  0.000  0.005
 H          0.000  0.000  0.468    0.000  0.000  0.013    0.000  0.000 -0.021
 H          0.000  0.000  0.468    0.000  0.000 -0.013    0.000  0.000 -0.021
 C          0.000  0.000 -0.062    0.000  0.000  0.041    0.000  0.000  0.042
 C          0.000  0.000 -0.062    0.000  0.000 -0.041    0.000  0.000  0.042
 H          0.000  0.000  0.036    0.000  0.000 -0.015    0.000  0.000 -0.015
 H          0.000  0.000  0.036    0.000  0.000  0.015    0.000  0.000 -0.015
 C          0.000  0.000  0.002    0.000  0.000 -0.120    0.000  0.000 -0.120
 C          0.000  0.000  0.002    0.000  0.000  0.120    0.000  0.000 -0.120
 H          0.000  0.000 -0.075    0.000  0.000  0.495    0.000  0.000  0.496
 H          0.000  0.000 -0.075    0.000  0.000 -0.495    0.000  0.000  0.496
 H          0.000  0.000  0.186    0.000  0.000  0.488    0.000  0.000  0.487
 H          0.000  0.000  0.186    0.000  0.000 -0.488    0.000  0.000  0.487
 TransDip   0.000  0.000  0.165    0.000  0.000  0.000    0.000  0.000  0.194

 Mode:                22                     23                     24
 Frequency:      1020.65                1039.06                1072.60
 Force Cnst:      0.7706                 0.8461                 1.9874
 Red. Mass:       1.2556                 1.3302                 2.9319
 IR Active:          NO                     YES                    YES
 IR Intens:        0.000                  0.006                  0.479
 Raman Active:       YES                    NO                     NO 
               X      Y      Z        X      Y      Z        X      Y      Z
 C          0.000  0.000 -0.020    0.000  0.000  0.000   -0.044 -0.014  0.000
 C          0.000  0.000  0.020    0.000  0.000  0.000   -0.044 -0.014  0.000
 C          0.000  0.000  0.075    0.000  0.000 -0.086    0.000  0.213  0.000
 C          0.000  0.000 -0.075    0.000  0.000 -0.086    0.000  0.213  0.000
 C          0.000  0.000 -0.072    0.000  0.000  0.085    0.061 -0.188  0.000
 C          0.000  0.000  0.072    0.000  0.000  0.085    0.061 -0.188  0.000
 H          0.000  0.000 -0.506    0.000  0.000  0.502   -0.266  0.320  0.000
 H          0.000  0.000  0.506    0.000  0.000  0.502   -0.266  0.320  0.000
 H          0.000  0.000  0.480    0.000  0.000 -0.482   -0.197 -0.411  0.000
 H          0.000  0.000 -0.480    0.000  0.000 -0.482   -0.197 -0.411  0.000
 C          0.000  0.000 -0.011    0.000  0.000  0.000   -0.002 -0.005  0.000
 C          0.000  0.000  0.011    0.000  0.000  0.000   -0.002 -0.005  0.000
 H          0.000  0.000 -0.024    0.000  0.000 -0.004   -0.036  0.003  0.000
 H          0.000  0.000  0.024    0.000  0.000 -0.004   -0.036  0.003  0.000
 C          0.000  0.000  0.002    0.000  0.000  0.002    0.030  0.011  0.000
 C          0.000  0.000 -0.002    0.000  0.000  0.002    0.030  0.011  0.000
 H          0.000  0.000 -0.031    0.000  0.000 -0.021   -0.097  0.030  0.000
 H          0.000  0.000  0.031    0.000  0.000 -0.021   -0.097  0.030  0.000
 H          0.000  0.000  0.029    0.000  0.000 -0.005    0.072 -0.122  0.000
 H          0.000  0.000 -0.029    0.000  0.000 -0.005    0.072 -0.122  0.000
[...]
 C         -0.079  0.003  0.000   -0.097 -0.065  0.000    0.182 -0.118  0.000
 C          0.032  0.086  0.000   -0.118 -0.005  0.000   -0.149 -0.103  0.000
 C          0.032  0.086  0.000    0.118  0.005  0.000   -0.149 -0.103  0.000
 H         -0.498  0.161  0.000    0.174  0.060  0.000   -0.390  0.088  0.000
 H         -0.498  0.161  0.000   -0.174 -0.060  0.000   -0.390  0.088  0.000
 H         -0.186 -0.094  0.000   -0.395 -0.211  0.000   -0.123 -0.087  0.000
 H         -0.186 -0.094  0.000    0.395  0.211  0.000   -0.123 -0.087  0.000
 C         -0.025 -0.042  0.000    0.052  0.078  0.000   -0.076 -0.107  0.000
 C         -0.025 -0.042  0.000   -0.052 -0.078  0.000   -0.076 -0.107  0.000
 H         -0.323  0.014  0.000    0.387  0.017  0.000   -0.122 -0.108  0.000
 H         -0.323  0.014  0.000   -0.387 -0.017  0.000   -0.122 -0.108  0.000
 C         -0.030  0.005  0.000    0.026 -0.029  0.000    0.026  0.059  0.000
 C         -0.030  0.005  0.000   -0.026  0.029  0.000    0.026  0.059  0.000
 H         -0.063  0.013  0.000    0.158 -0.056  0.000   -0.275  0.113  0.000
 H         -0.063  0.013  0.000   -0.158  0.056  0.000   -0.275  0.113  0.000
 H         -0.062  0.090  0.000    0.028 -0.011  0.000    0.072 -0.107  0.000
 H         -0.062  0.090  0.000   -0.028  0.011  0.000    0.072 -0.107  0.000
 TransDip   0.009  0.005  0.000    0.000  0.000  0.000   -0.095 -0.010  0.000

 Mode:                34                     35                     36
 Frequency:      1399.73                1420.63                1426.69
 Force Cnst:      1.6430                 1.5901                 1.5011
 Red. Mass:       1.4233                 1.3372                 1.2517
 IR Active:          NO                     YES                    NO 
 IR Intens:        0.000                  8.444                  0.000
 Raman Active:       YES                    NO                     YES
               X      Y      Z        X      Y      Z        X      Y      Z
 C         -0.013 -0.090  0.000    0.013 -0.024  0.000    0.001 -0.056  0.000
 C          0.013  0.090  0.000    0.013 -0.024  0.000   -0.001  0.056  0.000
 C          0.012 -0.006  0.000   -0.033 -0.001  0.000    0.021 -0.012  0.000
 C         -0.012  0.006  0.000   -0.033 -0.001  0.000   -0.021  0.012  0.000
 C          0.040  0.013  0.000    0.026  0.020  0.000    0.019  0.015  0.000
 C         -0.040 -0.013  0.000    0.026  0.020  0.000   -0.019 -0.015  0.000
 H         -0.382  0.137  0.000    0.008 -0.018  0.000   -0.278  0.096  0.000
 H          0.382 -0.137  0.000    0.008 -0.018  0.000    0.278 -0.096  0.000
 H         -0.289 -0.263  0.000   -0.033 -0.031  0.000   -0.212 -0.176  0.000
 H          0.289  0.263  0.000   -0.033 -0.031  0.000    0.212  0.176  0.000
 C         -0.034 -0.066  0.000   -0.013 -0.071  0.000   -0.001  0.047  0.000
 C          0.034  0.066  0.000   -0.013 -0.071  0.000    0.001 -0.047  0.000
 H          0.285 -0.145  0.000    0.569 -0.213  0.000   -0.484  0.165  0.000
 H         -0.285  0.145  0.000    0.569 -0.213  0.000    0.484 -0.165  0.000
 C          0.009  0.056  0.000   -0.012  0.082  0.000    0.017 -0.066  0.000
 C         -0.009 -0.056  0.000   -0.012  0.082  0.000   -0.017  0.066  0.000
 H         -0.224  0.101  0.000   -0.302  0.142  0.000    0.226 -0.110  0.000
 H          0.224 -0.101  0.000   -0.302  0.142  0.000   -0.226  0.110  0.000
 H          0.027 -0.021  0.000   -0.010  0.041  0.000    0.019 -0.042  0.000
 H         -0.027  0.021  0.000   -0.010  0.041  0.000   -0.019  0.042  0.000
 TransDip   0.000  0.000  0.000   -0.091  0.017  0.000    0.000  0.000  0.000

 Mode:                37                     38                     39
 Frequency:      1514.75                1565.29                1574.86
 Force Cnst:      3.4249                 1.8769                 1.8981
 Red. Mass:       2.5335                 1.3002                 1.2990
 IR Active:          YES                    NO                     YES
 IR Intens:       19.109                  0.000                  0.493
 Raman Active:       NO                     YES                    NO 
               X      Y      Z        X      Y      Z        X      Y      Z
 C         -0.008  0.135  0.000    0.031  0.021  0.000   -0.021  0.045  0.000
 C         -0.008  0.135  0.000   -0.031 -0.021  0.000   -0.021  0.045  0.000
 C         -0.122 -0.071  0.000    0.028 -0.012  0.000   -0.041 -0.001  0.000
 C         -0.122 -0.071  0.000   -0.028  0.012  0.000   -0.041 -0.001  0.000
 C          0.157  0.018  0.000   -0.004  0.017  0.000    0.027 -0.023  0.000
 C          0.157  0.018  0.000    0.004 -0.017  0.000    0.027 -0.023  0.000
 H          0.219 -0.221  0.000   -0.049  0.016  0.000    0.138 -0.071  0.000
 H          0.219 -0.221  0.000    0.049 -0.016  0.000    0.138 -0.071  0.000
 H         -0.309 -0.392  0.000   -0.035 -0.005  0.000    0.035 -0.026  0.000
 H         -0.309 -0.392  0.000    0.035  0.005  0.000    0.035 -0.026  0.000
 C         -0.070  0.001  0.000    0.097 -0.028  0.000    0.077 -0.033  0.000
 C         -0.070  0.001  0.000   -0.097  0.028  0.000    0.077 -0.033  0.000
 H         -0.047  0.000  0.000   -0.200  0.035  0.000   -0.242  0.037  0.000
 H         -0.047  0.000  0.000    0.200 -0.035  0.000   -0.242  0.037  0.000
 C          0.034 -0.010  0.000   -0.001 -0.022  0.000    0.010 -0.026  0.000
 C          0.034 -0.010  0.000    0.001  0.022  0.000    0.010 -0.026  0.000
 H          0.146 -0.037  0.000   -0.415  0.057  0.000   -0.411  0.053  0.000
 H          0.146 -0.037  0.000    0.415 -0.057  0.000   -0.411  0.053  0.000
 H          0.108 -0.221  0.000   -0.168  0.488  0.000   -0.147  0.456  0.000
 H          0.108 -0.221  0.000    0.168 -0.488  0.000   -0.147  0.456  0.000
 TransDip  -0.036 -0.135  0.000    0.000  0.000  0.000    0.016  0.015  0.000

 Mode:                40                     41                     42
 Frequency:      1639.28                1689.70                1737.77
 Force Cnst:      3.9205                 8.6156                 9.9421
 Red. Mass:       2.4762                 5.1217                 5.5879
 IR Active:          YES                    NO                     NO 
 IR Intens:       15.379                  0.000                  0.000
 Raman Active:       NO                     YES                    YES
               X      Y      Z        X      Y      Z        X      Y      Z
 C          0.160  0.040  0.000   -0.029  0.303  0.000   -0.191 -0.007  0.000
 C          0.160  0.040  0.000    0.029 -0.303  0.000    0.191  0.007  0.000
 C         -0.119  0.078  0.000    0.114 -0.167  0.000    0.299 -0.038  0.000
 C         -0.119  0.078  0.000   -0.114  0.167  0.000   -0.299  0.038  0.000
 C         -0.065 -0.114  0.000    0.069  0.206  0.000   -0.259 -0.103  0.000
 C         -0.065 -0.114  0.000   -0.069 -0.206  0.000    0.259  0.103  0.000
 H          0.455 -0.118  0.000   -0.289 -0.044  0.000   -0.334  0.207  0.000
 H          0.455 -0.118  0.000    0.289  0.044  0.000    0.334 -0.207  0.000
 H          0.367  0.223  0.000   -0.324 -0.088  0.000    0.201  0.298  0.000
 H          0.367  0.223  0.000    0.324  0.088  0.000   -0.201 -0.298  0.000
 C         -0.035 -0.020  0.000    0.034  0.007  0.000   -0.053  0.011  0.000
 C         -0.035 -0.020  0.000   -0.034 -0.007  0.000    0.053 -0.011  0.000
 H         -0.030 -0.027  0.000    0.167 -0.028  0.000    0.058 -0.013  0.000
 H         -0.030 -0.027  0.000   -0.167  0.028  0.000   -0.058  0.013  0.000
 C         -0.018  0.020  0.000   -0.058  0.041  0.000    0.021 -0.014  0.000
 C         -0.018  0.020  0.000    0.058 -0.041  0.000   -0.021  0.014  0.000
 H          0.093  0.003  0.000    0.232 -0.003  0.000   -0.059 -0.005  0.000
 H          0.093  0.003  0.000   -0.232  0.003  0.000    0.059  0.005  0.000
 H          0.026 -0.131  0.000    0.004 -0.179  0.000    0.009  0.033  0.000
 H          0.026 -0.131  0.000   -0.004  0.179  0.000   -0.009 -0.033  0.000
 TransDip   0.125 -0.009  0.000    0.000  0.000  0.000    0.000  0.000  0.000

 Mode:                43                     44                     45
 Frequency:      1815.59                1816.58                3399.68
 Force Cnst:      7.7248                 7.6722                 7.2383
 Red. Mass:       3.9774                 3.9461                 1.0629
 IR Active:          NO                     YES                    YES
 IR Intens:        0.000                  1.493                 98.852
 Raman Active:       YES                    NO                     NO 
               X      Y      Z        X      Y      Z        X      Y      Z
 C          0.020 -0.062  0.000   -0.049  0.029  0.000    0.000  0.000  0.000
 C         -0.020  0.062  0.000   -0.049  0.029  0.000    0.000  0.000  0.000
 C          0.034  0.021  0.000   -0.011 -0.009  0.000    0.000 -0.001  0.000
 C         -0.034 -0.021  0.000   -0.011 -0.009  0.000    0.000 -0.001  0.000
 C         -0.042 -0.045  0.000    0.020  0.000  0.000   -0.001  0.001  0.000
 C          0.042  0.045  0.000    0.020  0.000  0.000   -0.001  0.001  0.000
 H         -0.006  0.043  0.000    0.013 -0.023  0.000    0.003  0.010  0.000
 H          0.006 -0.043  0.000    0.013 -0.023  0.000    0.003  0.010  0.000
 H          0.031  0.013  0.000   -0.037 -0.054  0.000    0.011 -0.013  0.000
 H         -0.031 -0.013  0.000   -0.037 -0.054  0.000    0.011 -0.013  0.000
 C          0.218 -0.143  0.000    0.226 -0.141  0.000   -0.008 -0.011  0.000
 C         -0.218  0.143  0.000    0.226 -0.141  0.000   -0.008 -0.011  0.000
 H         -0.281 -0.063  0.000   -0.272 -0.061  0.000    0.040  0.181  0.000
 H          0.281  0.063  0.000   -0.272 -0.061  0.000    0.040  0.181  0.000
 C         -0.185  0.153  0.000   -0.188  0.154  0.000    0.037 -0.031  0.000
 C          0.185 -0.153  0.000   -0.188  0.154  0.000    0.037 -0.031  0.000
 H          0.383  0.098  0.000    0.389  0.098  0.000    0.081  0.467  0.000
 H         -0.383 -0.098  0.000    0.389  0.098  0.000    0.081  0.467  0.000
 H         -0.074 -0.343  0.000   -0.077 -0.342  0.000   -0.465 -0.147  0.000
 H          0.074  0.343  0.000   -0.077 -0.342  0.000   -0.465 -0.147  0.000
 TransDip   0.000  0.000  0.000   -0.002 -0.039  0.000   -0.310  0.074  0.000

 Mode:                46                     47                     48
 Frequency:      3400.40                3438.13                3438.17
 Force Cnst:      7.2410                 7.6451                 7.6454
 Red. Mass:       1.0629                 1.0977                 1.0977
 IR Active:          NO                     YES                    NO 
 IR Intens:        0.000                  3.693                  0.000
 Raman Active:       YES                    NO                     YES
               X      Y      Z        X      Y      Z        X      Y      Z
 C          0.000  0.000  0.000    0.002  0.000  0.000    0.002  0.000  0.000
 C          0.000  0.000  0.000    0.002  0.000  0.000   -0.002  0.000  0.000
 C          0.000  0.000  0.000   -0.001 -0.002  0.000   -0.001 -0.003  0.000
 C          0.000  0.000  0.000   -0.001 -0.002  0.000    0.001  0.003  0.000
 C          0.001 -0.001  0.000    0.000  0.000  0.000   -0.001  0.001  0.000
 C         -0.001  0.001  0.000    0.000  0.000  0.000    0.001 -0.001  0.000
 H          0.001  0.002  0.000    0.007  0.022  0.000    0.010  0.030  0.000
 H         -0.001 -0.002  0.000    0.007  0.022  0.000   -0.010 -0.030  0.000
 H         -0.008  0.010  0.000   -0.001  0.001  0.000    0.008 -0.010  0.000
 H          0.008 -0.010  0.000   -0.001  0.001  0.000   -0.008  0.010  0.000
 C          0.008  0.011  0.000   -0.010 -0.060  0.000    0.010  0.061  0.000
 C         -0.008 -0.011  0.000   -0.010 -0.060  0.000   -0.010 -0.061  0.000
 H         -0.040 -0.179  0.000    0.150  0.662  0.000   -0.150 -0.662  0.000
 H          0.040  0.179  0.000    0.150  0.662  0.000    0.150  0.662  0.000
 C         -0.037  0.031  0.000   -0.011  0.015  0.000    0.011 -0.015  0.000
 C          0.037 -0.031  0.000   -0.011  0.015  0.000   -0.011  0.015  0.000
 H         -0.081 -0.468  0.000   -0.029 -0.153  0.000    0.029  0.152  0.000
 H          0.081  0.468  0.000   -0.029 -0.153  0.000   -0.029 -0.152  0.000
 H          0.465  0.148  0.000    0.099  0.031  0.000   -0.097 -0.031  0.000
 H         -0.465 -0.148  0.000    0.099  0.031  0.000    0.097  0.031  0.000
 TransDip   0.000  0.000  0.000   -0.060  0.015  0.000    0.000  0.000  0.000

 Mode:                49                     50                     51
 Frequency:      3458.77                3462.27                3477.87
 Force Cnst:      7.6930                 7.7074                 7.8304
 Red. Mass:       1.0914                 1.0913                 1.0988
 IR Active:          YES                    NO                     YES
 IR Intens:        0.732                  0.000                  6.276
 Raman Active:       NO                     YES                    NO 
               X      Y      Z        X      Y      Z        X      Y      Z
 C         -0.002  0.001  0.000   -0.001  0.003  0.000    0.000  0.004  0.000
 C         -0.002  0.001  0.000    0.001 -0.003  0.000    0.000  0.004  0.000
 C         -0.017 -0.050  0.000   -0.017 -0.050  0.000   -0.014 -0.030  0.000
 C         -0.017 -0.050  0.000    0.017  0.050  0.000   -0.014 -0.030  0.000
 C         -0.018  0.026  0.000   -0.018  0.025  0.000    0.036 -0.041  0.000
 C         -0.018  0.026  0.000    0.018 -0.025  0.000    0.036 -0.041  0.000
 H          0.206  0.568  0.000    0.207  0.569  0.000    0.125  0.338  0.000
 H          0.206  0.568  0.000   -0.207 -0.569  0.000    0.125  0.338  0.000
 H          0.229 -0.280  0.000    0.228 -0.277  0.000   -0.385  0.466  0.000
 H          0.229 -0.280  0.000   -0.228  0.277  0.000   -0.385  0.466  0.000
 C          0.000  0.002  0.000   -0.001 -0.003  0.000    0.000  0.001  0.000
 C          0.000  0.002  0.000    0.001  0.003  0.000    0.000  0.001  0.000
 H         -0.004 -0.023  0.000    0.007  0.031  0.000   -0.003 -0.011  0.000
 H         -0.004 -0.023  0.000   -0.007 -0.031  0.000   -0.003 -0.011  0.000
 C         -0.001  0.000  0.000   -0.001  0.000  0.000    0.001  0.000  0.000
 C         -0.001  0.000  0.000    0.001  0.000  0.000    0.001  0.000  0.000
 H         -0.001 -0.005  0.000   -0.001 -0.007  0.000    0.000  0.004  0.000
 H         -0.001 -0.005  0.000    0.001  0.007  0.000    0.000  0.004  0.000
 H          0.013  0.004  0.000    0.011  0.003  0.000   -0.014 -0.004  0.000
 H          0.013  0.004  0.000   -0.011 -0.003  0.000   -0.014 -0.004  0.000
 TransDip   0.010  0.025  0.000    0.000  0.000  0.000   -0.023  0.077  0.000

 Mode:                52                     53                     54
 Frequency:      3480.80                3552.24                3552.26
 Force Cnst:      7.8504                 8.3142                 8.3140
 Red. Mass:       1.0997                 1.1183                 1.1183
 IR Active:          NO                     YES                    NO 
 IR Intens:        0.000                  0.010                  0.000
 Raman Active:       YES                    NO                     YES
               X      Y      Z        X      Y      Z        X      Y      Z
 C         -0.002 -0.001  0.000    0.000  0.000  0.000    0.000  0.000  0.000
 C          0.002  0.001  0.000    0.000  0.000  0.000    0.000  0.000  0.000
 C         -0.014 -0.031  0.000    0.000  0.000  0.000    0.000  0.000  0.000
 C          0.014  0.031  0.000    0.000  0.000  0.000    0.000  0.000  0.000
 C          0.036 -0.042  0.000    0.000 -0.001  0.000   -0.001  0.001  0.000
 C         -0.036  0.042  0.000    0.000 -0.001  0.000    0.001 -0.001  0.000
 H          0.123  0.336  0.000    0.000  0.000  0.000   -0.001 -0.001  0.000
 H         -0.123 -0.336  0.000    0.000  0.000  0.000    0.001  0.001  0.000
 H         -0.386  0.468  0.000   -0.006  0.008  0.000    0.007 -0.010  0.000
 H          0.386 -0.468  0.000   -0.006  0.008  0.000   -0.007  0.010  0.000
 C          0.000 -0.001  0.000   -0.001 -0.003  0.000    0.001  0.003  0.000
 C          0.000  0.001  0.000   -0.001 -0.003  0.000   -0.001 -0.003  0.000
 H          0.000  0.007  0.000    0.007  0.039  0.000   -0.007 -0.039  0.000
 H          0.000 -0.007  0.000    0.007  0.039  0.000    0.007  0.039  0.000
 C          0.001  0.001  0.000   -0.047 -0.053  0.000    0.047  0.053  0.000
 C         -0.001 -0.001  0.000   -0.047 -0.053  0.000   -0.047 -0.053  0.000
 H          0.000  0.000  0.000    0.080  0.490  0.000   -0.080 -0.490  0.000
 H          0.000  0.000  0.000    0.080  0.490  0.000    0.080  0.490  0.000
 H         -0.015 -0.005  0.000    0.475  0.144  0.000   -0.475 -0.144  0.000
 H          0.015  0.005  0.000    0.475  0.144  0.000    0.475  0.144  0.000
 TransDip   0.000  0.000  0.000   -0.002  0.002  0.000    0.000  0.000  0.000

 STANDARD THERMODYNAMIC QUANTITIES AT   298.15 K  AND     1.00 ATM

   This Molecule has  0 Imaginary Frequencies
   Zero point vibrational energy:      111.254 kcal/mol

   Atom    1 Element C  Has Mass   12.00000
   Atom    2 Element C  Has Mass   12.00000
   Atom    3 Element C  Has Mass   12.00000
   Atom    4 Element C  Has Mass   12.00000
   Atom    5 Element C  Has Mass   12.00000
   Atom    6 Element C  Has Mass   12.00000
   Atom    7 Element H  Has Mass    1.00783
   Atom    8 Element H  Has Mass    1.00783
   Atom    9 Element H  Has Mass    1.00783
   Atom   10 Element H  Has Mass    1.00783
   Atom   11 Element C  Has Mass   12.00000
   Atom   12 Element C  Has Mass   12.00000
   Atom   13 Element H  Has Mass    1.00783
   Atom   14 Element H  Has Mass    1.00783
   Atom   15 Element C  Has Mass   12.00000
   Atom   16 Element C  Has Mass   12.00000
   Atom   17 Element H  Has Mass    1.00783
   Atom   18 Element H  Has Mass    1.00783
   Atom   19 Element H  Has Mass    1.00783
   Atom   20 Element H  Has Mass    1.00783
   Molecular Mass:   130.078300 amu
   Principal axes and moments of inertia in amu*Bohr^2:
                             1           2           3
    Eigenvalues --      390.81956  2631.73358  3022.55314
          X               0.99999    -0.00450     0.00000
          Y               0.00450     0.99999     0.00000
          Z               0.00000     0.00000     1.00000
   Rotational Symmetry Number is   2
   The Molecule is an Asymmetric Top
   Translational Enthalpy:        0.889 kcal/mol
   Rotational Enthalpy:           0.889 kcal/mol
   Vibrational Enthalpy:        115.054 kcal/mol
   gas constant (RT):             0.592 kcal/mol
   Translational Entropy:        40.502  cal/mol.K
   Rotational Entropy:           28.143  cal/mol.K
   Vibrational Entropy:          23.394  cal/mol.K

   Total Enthalpy:              117.424 kcal/mol
   Total Entropy:                92.039  cal/mol.K
Archival summary:
1\1\gold\FREQ\ProcedureUnspecified\STO-3G\1010\eric\SunJul613:03:332014SunJul613:03:332014\0\\#,FREQ,ProcedureUnspecified,STO-3G,\\0,1\C\C,1,1.42197\H,2,1.09701,1,119.423\C,2,1.40247,1,120.874,3,-180,0\H,4,1.09872,2,119.65,1,180,0\C,1,1.42204,2,117.978,3,180,0\H,6,1.09872,1,119.201,2,180,0\C,6,1.40247,1,121.149,2,0,0\H,8,1.09701,6,119.704,1,-180,0\C,8,1.42197,6,120.874,1,0,0\C,1,1.49784,2,122.901,3,0,0\H,11,1.10099,1,114.63,2,-180,0\C,11,1.34423,1,126.58,2,0,0\H,13,1.09597,11,122.485,1,0,0\H,13,1.09667,11,121.295,1,180,0\C,10,1.49784,8,122.901,6,-180,0\H,16,1.10099,10,114.63,8,180,0\C,16,1.34423,10,126.58,8,0,0\H,18,1.09597,16,122.485,10,0,0\H,18,1.09667,16,121.295,10,-180,0\\\@

 Total job time:  123.85s(wall), 123.56s(cpu) 
 Sun Jul  6 13:03:33 2014

        *************************************************************
        *                                                           *
        *  Thank you very much for using Q-Chem.  Have a nice day.  *
        *                                                           *
        *************************************************************


